Generated by ZY code

200 atoms
2 atom types
224 bonds
2 bond types
0 angles
0 angle types
0 dihedrals
0 dihedral types
0 impropers
0 improper types

97.0283097849992373 102.9716902150007627 xlo xhi
97.0283097849992373 102.9716902150007627 ylo yhi
97.0283097849992373 102.9716902150007627 zlo zhi

Masses

1 1.000
2 1.500

Pair Coeffs

1 1.000000 1.000000
2 1.000000 1.000000

Bond Coeffs

1 100.000000 1.200000
2 100.000000 1.200000

Atoms # full

143 72 1 0.000000 97.310710 98.820900 98.458371 -1 2 -1
142 71 1 0.000000 97.271627 99.983988 98.504250 1 0 0
2 1 1 0.000000 99.747417 97.541750 98.053475 -1 1 0
126 63 1 0.000000 99.045561 98.561740 97.846712 1 0 2
67 34 1 0.000000 98.295405 98.334876 98.610611 0 -1 1
59 30 1 0.000000 98.646098 97.607225 97.891821 2 -1 0
10 5 1 0.000000 97.483589 97.673991 98.669449 -1 -2 3
9 5 1 0.000000 97.090700 97.535821 97.564803 -1 -2 3
186 106 2 0.000000 99.063308 99.784659 97.617392 -1 0 1
184 104 2 0.000000 98.060870 99.295958 97.860184 0 0 -2
176 96 2 0.000000 99.929614 99.858261 98.493272 -2 1 0
130 65 1 0.000000 97.921372 98.265819 97.519761 0 1 0
163 83 2 0.000000 99.037783 99.312292 98.528144 -2 0 1
152 76 1 0.000000 97.101751 99.650501 97.274021 -1 0 0
106 53 1 0.000000 98.450240 97.275382 98.911061 1 0 1
60 30 1 0.000000 99.283810 98.010943 98.857723 2 -1 0
188 108 2 0.000000 99.815886 98.261779 97.136234 -1 2 0
172 92 2 0.000000 97.441441 99.949894 100.252206 0 -3 2
175 95 2 0.000000 99.896026 98.105127 99.841300 0 2 0
74 37 1 0.000000 99.546166 99.141161 100.178596 0 0 -1
99 50 1 0.000000 97.606692 97.466435 100.612673 0 3 -2
72 36 1 0.000000 97.941939 98.876947 99.999347 0 0 0
71 36 1 0.000000 98.901933 98.234907 100.468127 0 0 0
68 34 1 0.000000 98.145718 99.400061 99.044638 0 -1 1
46 23 1 0.000000 99.084088 97.436408 99.801597 0 0 1
31 16 1 0.000000 98.841305 98.684358 99.513964 -2 1 -2
32 16 1 0.000000 98.598042 99.625731 100.233781 -2 1 -2
145 73 1 0.000000 97.055084 98.324140 99.469658 -1 0 -1
73 37 1 0.000000 99.836839 98.941249 99.088614 0 0 -1
45 23 1 0.000000 98.023895 97.926937 99.638484 -1 1 1
70 35 1 0.000000 99.736607 97.476944 100.636863 0 0 0
50 25 1 0.000000 97.105466 99.401753 99.369410 0 0 1
180 100 2 0.000000 97.196243 97.185762 99.595310 -1 1 1
199 119 2 0.000000 98.697826 97.037813 100.847217 -2 -1 0
76 38 1 0.000000 99.195366 99.917415 99.413515 0 1 0
43 22 1 0.000000 99.930564 98.519294 100.943266 -1 -1 0
117 59 1 0.000000 97.933797 98.376382 100.940107 -1 0 -2
47 24 1 0.000000 99.697159 97.063990 99.020815 1 -1 2
195 115 2 0.000000 98.360332 98.629691 101.917941 2 1 -1
107 54 1 0.000000 99.459955 98.580412 102.090150 -1 0 -1
151 76 1 0.000000 97.582656 99.730619 102.077530 -1 0 -1
119 60 1 0.000000 97.344660 97.906324 102.513181 0 2 1
131 66 1 0.000000 97.967536 99.395020 101.112979 -1 0 -2
171 91 2 0.000000 97.294294 98.785893 101.699455 -2 0 0
140 70 1 0.000000 99.939418 99.541342 101.314004 1 -1 0
185 105 2 0.000000 98.932036 99.002766 101.150047 2 0 0
135 68 1 0.000000 97.054594 97.622555 101.542726 3 0 -2
156 78 1 0.000000 99.130232 97.840010 101.456293 1 1 -1
62 31 1 0.000000 97.665456 98.921221 102.719661 1 -2 -3
147 74 1 0.000000 98.935217 99.621200 102.077314 0 1 1
108 54 1 0.000000 99.646008 97.396560 102.275837 -1 0 -1
118 59 1 0.000000 98.103984 97.586812 101.740222 -1 0 -2
129 65 1 0.000000 98.729519 98.979133 102.879570 1 0 -1
21 11 1 0.000000 98.019979 97.223039 102.960812 -1 1 -1
125 63 1 0.000000 98.846046 97.928131 102.785678 0 1 1
153 77 1 0.000000 99.959784 99.289656 102.967505 0 0 -2
190 110 2 0.000000 97.572871 101.657198 97.903318 0 1 -2
17 9 1 0.000000 98.894442 100.907747 99.000933 -1 0 -1
18 9 1 0.000000 98.309405 100.189809 98.302140 0 -1 -1
85 43 1 0.000000 99.485119 100.769649 98.087268 1 2 0
5 3 1 0.000000 98.496315 101.692166 98.428838 0 -2 0
86 43 1 0.000000 99.582500 101.742057 98.738656 1 2 0
6 3 1 0.000000 98.528078 100.909500 97.560452 -3 1 0
1 1 1 0.000000 98.956448 102.565756 98.245846 -1 0 0
52 26 1 0.000000 99.953604 102.427043 97.963816 1 -1 0
137 69 1 0.000000 97.515304 100.607717 97.644432 0 0 1
162 82 2 0.000000 97.862844 102.693058 98.074341 -1 0 0
66 33 1 0.000000 99.268192 101.705870 97.609290 1 -1 0
102 51 1 0.000000 97.137603 102.401986 97.234477 -1 2 0
189 109 2 0.000000 97.779004 100.973523 98.638928 -2 0 0
193 113 2 0.000000 98.348398 102.167016 97.256214 -2 0 1
22 11 1 0.000000 99.187481 102.923586 97.261834 -1 0 0
41 21 1 0.000000 99.309685 101.465146 99.761650 -1 0 0
169 89 2 0.000000 97.471469 101.017435 100.271331 3 -1 2
165 85 2 0.000000 98.864881 102.314559 99.319468 2 1 -3
42 21 1 0.000000 98.514714 101.950729 100.451235 -1 0 0
178 98 2 0.000000 99.408047 101.283202 100.774188 -2 0 0
80 40 1 0.000000 98.207917 101.475036 99.517892 -1 -2 0
141 71 1 0.000000 97.997826 100.321708 99.414651 1 0 0
93 47 1 0.000000 97.755932 102.272707 99.021906 -1 0 -1
79 40 1 0.000000 97.397322 102.102487 100.095979 -1 -2 0
105 53 1 0.000000 98.140578 102.814639 99.933344 0 0 1
19 10 1 0.000000 99.468326 102.463676 100.290726 1 0 0
23 12 1 0.000000 99.515447 100.183433 100.407365 -1 0 0
75 38 1 0.000000 98.609980 100.698787 100.153490 1 0 0
29 15 1 0.000000 99.931796 100.837318 99.179296 0 0 1
150 75 1 0.000000 98.758818 102.755279 102.215676 0 1 -2
78 39 1 0.000000 98.068125 101.842666 101.982654 1 1 1
159 80 1 0.000000 98.888484 101.525313 102.522808 1 0 0
198 118 2 0.000000 97.092808 100.557158 102.446189 1 0 0
148 74 1 0.000000 98.762644 100.221818 101.119663 0 1 1
132 66 1 0.000000 97.556989 100.477926 101.304705 0 -1 -2
160 80 1 0.000000 99.169714 100.423605 102.782767 1 0 0
53 27 1 0.000000 99.321415 100.856819 101.732221 0 -1 0
177 97 2 0.000000 98.292924 100.668581 102.044997 1 0 1
149 75 1 0.000000 98.992503 101.956153 101.418929 -1 2 -2
8 4 1 0.000000 99.955239 100.058125 102.199699 -2 -2 0
174 94 2 0.000000 99.901418 101.135662 102.710202 -1 0 -1
120 60 1 0.000000 97.543922 102.694046 102.204784 -1 2 1
100 50 1 0.000000 97.713660 102.379019 101.135496 -1 3 -2
155 78 1 0.000000 99.699108 102.714428 101.401805 0 1 -1
116 58 1 0.000000 97.824340 101.307444 102.852689 0 0 -2
181 101 2 0.000000 99.902489 102.173064 102.680612 0 0 1
54 27 1 0.000000 98.323785 101.167013 101.127897 0 -1 0
115 58 1 0.000000 98.133421 100.057516 102.907371 0 0 -2
167 87 2 0.000000 97.182303 101.480458 101.116689 2 -3 -2
111 56 1 0.000000 100.783724 99.044379 98.780019 -2 0 -2
57 29 1 0.000000 101.904719 99.197660 97.111379 -1 -1 2
154 77 1 0.000000 100.852647 99.607887 97.860288 0 0 -1
161 81 2 0.000000 101.761123 98.017165 97.122438 3 1 1
112 56 1 0.000000 101.597782 98.660892 98.013033 -2 0 -2
28 14 1 0.000000 100.876060 98.800615 97.140843 -2 -1 0
61 31 1 0.000000 102.719768 98.610371 97.476796 0 -2 -2
194 114 2 0.000000 102.313513 99.500189 98.094143 0 1 1
144 72 1 0.000000 102.435764 97.969504 98.303807 -2 2 -1
128 64 1 0.000000 100.812276 97.926340 97.690708 0 0 2
25 13 1 0.000000 101.447805 97.654813 98.402307 0 -1 -1
27 14 1 0.000000 100.061494 98.847166 97.998295 -2 -1 0
101 51 1 0.000000 102.117971 97.062785 97.682251 0 1 0
48 24 1 0.000000 100.441285 97.992680 98.729110 1 -1 2
88 44 1 0.000000 100.265478 97.139723 97.199379 -2 1 2
11 6 1 0.000000 101.345807 99.362238 99.584899 -1 1 -1
136 68 1 0.000000 102.604775 97.887653 100.395694 2 0 -2
12 6 1 0.000000 100.252619 99.890532 99.589584 -1 1 -1
24 12 1 0.000000 100.670403 99.822063 100.526570 -1 0 0
96 48 1 0.000000 102.292462 99.621470 100.031127 -1 -1 -1
122 61 1 0.000000 101.770235 98.655553 100.242404 -1 2 1
168 88 2 0.000000 101.245363 98.134732 99.462861 -2 0 -1
121 61 1 0.000000 100.583381 98.896476 100.035251 -1 2 1
4 2 1 0.000000 101.627008 97.317134 100.103912 -1 0 1
109 55 1 0.000000 100.876445 98.001750 100.587540 -1 1 -1
26 13 1 0.000000 102.197409 97.617564 99.263773 0 -1 -1
197 117 2 0.000000 102.099987 98.810812 99.065564 1 1 -1
146 73 1 0.000000 102.947857 98.933137 100.515346 0 -2 -1
69 35 1 0.000000 100.584868 97.299971 99.806932 1 -1 0
37 19 1 0.000000 102.131525 99.973632 99.044627 -2 1 2
191 111 2 0.000000 100.653955 97.906917 102.541151 0 0 -1
84 42 1 0.000000 102.526147 99.457775 102.223873 1 2 -1
98 49 1 0.000000 102.299800 98.328404 102.233783 1 2 -1
95 48 1 0.000000 101.784686 99.764481 101.059399 -1 -1 -1
166 86 2 0.000000 101.492323 99.090067 102.078186 -1 -1 1
44 22 1 0.000000 100.501689 98.823143 101.995817 -1 -1 0
164 84 2 0.000000 100.920035 99.880854 101.642214 1 -1 1
97 49 1 0.000000 101.305500 98.128866 101.631040 1 2 -1
40 20 1 0.000000 100.842203 99.778294 102.758521 1 0 0
83 42 1 0.000000 102.127707 98.759328 101.251717 0 3 -1
127 64 1 0.000000 101.275669 97.086347 102.843579 0 0 1
170 90 2 0.000000 102.435314 97.180739 102.503993 0 2 0
56 28 1 0.000000 102.813862 99.668968 101.234767 1 -1 1
139 70 1 0.000000 100.980372 98.970140 101.032632 1 -1 0
110 55 1 0.000000 100.267430 97.768734 101.557516 -1 1 -1
36 18 1 0.000000 101.989572 97.513785 101.168147 2 -1 0
7 4 1 0.000000 100.100283 100.320393 97.394821 -2 -2 1
187 107 2 0.000000 101.696926 100.395488 98.143067 0 1 1
30 15 1 0.000000 100.598901 100.767155 98.253788 0 0 1
200 120 2 0.000000 100.758479 101.828324 98.653926 0 -3 2
34 17 1 0.000000 101.767249 101.458029 98.698705 0 1 -1
138 69 1 0.000000 102.626947 101.352462 97.245695 0 -1 1
38 19 1 0.000000 101.026720 100.063748 98.876293 -2 1 2
58 29 1 0.000000 102.189212 100.339208 97.225344 -1 -1 2
65 33 1 0.000000 100.479514 101.585145 97.656335 1 -1 0
134 67 1 0.000000 101.707070 102.545316 98.617102 -2 1 -2
123 62 1 0.000000 101.595029 101.500979 97.653905 0 -1 1
16 8 1 0.000000 101.109529 100.711195 97.269418 -2 0 0
94 47 1 0.000000 102.738780 102.828973 98.638394 -1 -1 -1
51 26 1 0.000000 100.711350 102.916590 98.764612 1 -1 0
33 17 1 0.000000 102.650096 100.823521 98.273970 0 1 -1
104 52 1 0.000000 102.416270 101.994744 98.017443 1 -2 1
124 62 1 0.000000 101.061039 102.585646 97.791333 0 -1 1
114 57 1 0.000000 101.338509 101.376334 100.392915 -3 -1 0
90 45 1 0.000000 100.994737 101.018144 99.302288 0 0 1
196 116 2 0.000000 102.061695 101.080370 99.591659 -1 1 0
64 32 1 0.000000 101.452434 100.365621 100.111892 1 -1 0
192 112 2 0.000000 101.726684 102.427820 100.721657 0 0 -1
133 67 1 0.000000 102.333814 102.410991 99.551701 -2 1 -2
173 93 2 0.000000 100.804651 102.924017 100.886298 0 0 -1
92 46 1 0.000000 102.413596 101.720210 100.391396 1 -1 0
91 46 1 0.000000 102.462540 100.552628 100.553681 1 -1 0
3 2 1 0.000000 102.675386 102.754485 100.558351 -2 0 1
183 103 2 0.000000 100.246081 102.135557 99.576163 -2 -1 -2
179 99 2 0.000000 100.393925 100.921518 100.237836 2 0 0
20 10 1 0.000000 100.426911 101.923198 100.626893 1 0 0
89 45 1 0.000000 101.308325 102.161238 99.651451 0 0 1
49 25 1 0.000000 102.946473 100.587485 99.444474 0 -1 1
103 52 1 0.000000 102.833809 101.631113 99.087320 0 -1 1
82 41 1 0.000000 101.590026 102.673438 101.883751 -2 1 -1
77 39 1 0.000000 102.883732 101.674372 102.237869 1 0 1
81 41 1 0.000000 102.045023 102.239307 102.925466 -2 1 -1
63 32 1 0.000000 101.448221 100.762489 101.296167 1 -1 0
182 102 2 0.000000 101.738360 101.295924 102.333684 -2 -3 1
14 7 1 0.000000 101.020959 101.834159 101.491753 -1 -1 0
15 8 1 0.000000 100.817407 100.861247 102.087868 -2 0 -1
87 44 1 0.000000 100.557649 102.736311 102.037512 -2 0 1
55 28 1 0.000000 102.492781 100.745611 101.585846 0 0 1
13 7 1 0.000000 100.904977 101.886694 102.675287 -1 -1 0
157 79 1 0.000000 100.209154 100.587246 101.229799 -1 0 2
113 57 1 0.000000 102.050567 101.712932 101.389956 -1 -3 0
35 18 1 0.000000 102.633040 102.498075 101.601406 1 -1 0
158 79 1 0.000000 100.012045 101.691271 101.705418 -1 0 2
39 20 1 0.000000 101.764754 100.210421 102.192656 1 0 0

Velocities 

143 -0.340288 0.017893 0.291478
142 0.263817 -0.427330 0.430674
2 0.185771 0.163418 0.043116
126 -0.121406 -0.138746 -0.600546
67 -0.378103 0.159490 -0.339585
59 0.268067 -0.518448 0.110371
10 -0.012397 0.184348 0.385032
9 0.182133 -0.026806 0.371522
186 -0.515952 -0.427373 -0.217835
184 0.181362 -0.149410 0.101337
176 -0.109154 0.085374 -0.020088
130 0.131722 -0.155336 -0.057255
163 0.274742 -0.091717 -0.232822
152 0.206177 -0.230573 -0.113396
106 0.091174 0.025127 -0.230567
60 0.169042 -0.041665 0.278172
188 0.164214 -0.227776 -0.071268
172 0.238393 0.165103 -0.002569
175 0.101983 -0.123892 -0.284756
74 -0.186411 -0.150645 0.167747
99 -0.147784 0.365318 -0.016890
72 0.201095 -0.566488 -0.073744
71 -0.279394 -0.421059 0.167074
68 0.157401 0.347572 -0.256898
46 0.377801 -0.358447 0.648873
31 -0.244290 0.045988 -0.290655
32 0.236871 0.873460 -0.416566
145 0.080857 0.125154 0.360593
73 -0.080152 0.131819 0.307105
45 -0.228601 0.345144 -0.070045
70 0.123851 0.139993 -0.223919
50 -0.080468 0.167268 -0.380787
180 -0.271289 0.156529 0.039627
199 0.456528 0.237925 0.511050
76 0.457420 -0.005248 0.407993
43 -0.228775 -0.266129 0.206065
117 0.474962 -0.372296 -0.069009
47 -0.145763 -0.347198 -0.042420
195 0.193302 0.193492 -0.212637
107 -0.003093 0.019612 -0.137397
151 -0.249313 -0.044459 -0.098587
119 0.546410 0.821175 0.632148
131 0.129140 -0.021436 -0.033520
171 0.071653 -0.329265 -0.021776
140 -0.722249 0.082927 -0.003058
185 -0.409823 0.048611 -0.088125
135 -0.181706 0.031101 -0.072059
156 0.134562 -0.360863 -0.400733
62 0.098117 0.403906 0.006900
147 -0.013219 0.226105 0.397129
108 0.239604 -0.332588 -0.194261
118 -0.562551 -0.372046 0.104136
129 -0.106555 -0.236154 0.138136
21 -0.588250 -0.186134 -0.137248
125 -0.071854 -0.598404 -0.343419
153 -0.176550 -0.221353 -0.349014
190 -0.103451 0.281491 0.201934
17 -0.595125 -0.281552 -0.206746
18 -0.013143 -0.078139 -0.271542
85 -0.631985 -0.338691 0.336649
5 0.363522 0.108996 0.149625
86 -0.583147 -0.046969 -0.068520
6 -0.064694 0.357828 0.257948
1 -0.037132 0.259664 -0.120979
52 -0.069366 -0.072514 -0.047590
137 0.292581 0.086446 0.153991
162 0.160347 -0.545154 0.077662
66 0.646650 -0.047089 0.625043
102 0.487616 0.137499 -0.251665
189 -0.040350 0.216683 -0.457111
193 0.163810 -0.536302 0.580671
22 -0.336547 0.546752 0.195484
41 0.452826 -0.133381 0.217186
169 0.136223 0.175789 0.250423
165 -0.120544 -0.188822 -0.253780
42 -0.089089 -0.074883 0.348270
178 -0.541909 -0.745152 -0.127065
80 0.156836 0.010164 -0.289535
141 -0.260432 0.586103 -0.127211
93 0.677617 -0.073153 -0.522345
79 -0.390712 0.308273 0.494225
105 -0.010933 -0.301445 0.080824
19 0.053094 0.271521 0.272104
23 -0.033218 -0.146121 -0.276437
75 0.367733 0.160956 -0.087383
29 0.544538 0.178562 -0.022985
150 -0.311708 0.476819 0.263841
78 -0.086371 0.110586 -0.092604
159 -0.002430 0.485688 -0.567754
198 -0.282176 0.108114 0.036102
148 -0.571407 -0.919781 0.038466
132 0.154947 -0.222268 0.246043
160 -0.229344 -0.119491 -0.495532
53 0.032729 -0.447981 -0.073201
177 0.135663 -0.084201 0.302012
149 -0.275825 0.283088 -0.135909
8 -0.010593 -0.003934 0.112289
174 -0.226166 -0.105163 -0.222263
120 0.108520 0.223691 0.397884
100 0.025960 -0.038584 -0.048654
155 -0.225736 -0.356951 -0.020684
116 0.055764 0.010719 0.041359
181 -0.092680 -0.060192 -0.361051
54 -0.137934 0.390901 0.030612
115 0.005628 0.195496 0.025306
167 0.013897 -0.187637 -0.046362
111 -0.009961 0.251812 0.000537
57 -0.231542 -0.326507 -0.092725
154 0.026981 -0.619110 0.625807
161 -0.047179 0.114095 -0.420709
112 -0.303738 -0.178271 -0.284067
28 -0.369289 0.739328 0.229951
61 0.415013 0.188885 0.013968
194 0.240223 0.156335 -0.239019
144 -0.257604 -0.058876 0.057516
128 -0.337189 0.148540 -0.075652
25 0.319027 -0.041681 0.053581
27 -0.283095 -0.083553 0.346479
101 -0.161834 -0.216376 -0.220977
48 0.373329 -0.156856 0.015432
88 0.701902 0.333713 0.108666
11 -0.043722 -0.168453 -0.105414
136 -0.368753 -0.264214 0.290736
12 -0.148552 0.193828 0.058862
24 -0.001347 -0.042947 0.190862
96 0.038815 0.305740 -0.309856
122 -0.280656 -0.225069 0.498105
168 -0.015291 0.211828 0.052101
121 -0.575703 -0.157580 -0.616766
4 -0.156295 -0.558107 0.305624
109 0.266678 -0.001737 -0.042895
26 -0.378245 -0.089983 -0.417420
197 -0.026591 0.157512 -0.125574
146 0.197469 -0.463988 0.348681
69 0.016352 -0.232607 -0.037450
37 0.484512 0.362657 0.357662
191 -0.134227 0.251821 0.347812
84 -0.193430 0.410320 -0.349992
98 0.317448 0.059581 0.238471
95 0.149498 -0.205168 0.539896
166 0.421000 0.159615 0.227298
44 -0.107868 0.106863 0.136138
164 -0.194414 -0.581137 -0.313628
97 0.152801 -0.006013 0.161013
40 -0.151112 0.183469 -0.228163
83 0.257266 -0.374788 0.132238
127 0.047690 0.274351 0.001419
170 -0.106616 0.279691 0.198483
56 0.205592 0.610772 -0.045117
139 -0.091863 -0.476540 -0.017386
110 0.601285 0.015222 -0.012684
36 -0.011795 -0.010537 0.222242
7 0.064979 0.455927 -0.016648
187 0.071082 0.064242 -0.239640
30 0.331711 0.048489 0.187721
200 0.088736 -0.048184 0.111570
34 -0.276341 0.414370 0.467625
138 -0.167795 0.133016 0.118948
38 -0.006754 0.183219 0.226849
58 0.061114 0.158074 0.051126
65 0.028291 0.425459 0.290465
134 -0.225200 0.407125 0.206426
123 0.033390 -0.319618 -0.132774
16 0.228404 0.180388 -0.550384
94 -0.612106 0.052733 0.619754
51 0.271101 0.536686 0.052661
33 0.154209 -0.245303 -0.142861
104 -0.193955 -0.559943 0.264027
124 -0.304613 -0.287847 -0.284085
114 -0.053606 -0.125094 -0.336627
90 0.043258 -0.015212 0.189710
196 -0.042662 -0.175708 -0.312270
64 0.885505 0.223288 0.241729
192 -0.103875 0.297088 -0.039778
133 0.060033 0.484076 -0.107669
173 0.265544 -0.265006 -0.466165
92 0.124152 0.129893 -0.264578
91 -0.068567 -0.233198 -0.411006
3 -0.155962 0.092980 -0.242410
183 0.079238 -0.070258 0.100979
179 -0.069440 0.112377 -0.277547
20 -0.319035 0.451135 0.011387
89 0.066161 0.065632 -0.355228
49 0.064882 -0.148404 0.437330
103 0.652374 0.523265 0.409293
82 0.047239 -0.099651 0.042028
77 -0.369505 -0.502150 0.053738
81 0.288862 0.957833 0.641884
63 0.149042 -0.058583 0.020782
182 0.074905 0.087914 -0.281043
14 -0.007052 0.113763 0.234835
15 -0.197044 -0.020846 -0.044808
87 0.728561 0.455186 0.091665
55 -0.159111 0.207464 -0.208360
13 0.159370 0.205100 -0.187660
157 -0.518986 -0.353773 0.179496
113 -0.187727 -0.193338 -0.804957
35 -0.400095 -0.164300 -0.212145
158 -0.125780 -0.357829 -0.124383
39 0.613433 -0.138844 -0.459047

Bonds

1 1 143 144
2 1 67 68
3 1 59 60
4 1 9 10
5 2 186 85
6 2 186 115
7 2 186 126
8 2 186 153
9 2 184 62
11 2 184 129
12 2 184 142
13 2 176 7
14 2 176 29
15 2 176 38
16 2 176 111
17 2 163 18
18 2 163 27
19 2 163 31
20 2 163 67
21 2 188 2
22 2 188 88
23 2 188 108
24 2 188 128
25 2 172 32
26 2 172 56
27 2 172 72
28 2 172 131
29 2 175 43
30 2 175 60
31 2 175 71
32 2 175 73
33 1 99 100
34 1 71 72
35 1 31 32
36 1 145 146
37 1 73 74
38 1 45 46
39 2 180 93
40 2 180 99
41 2 180 136
42 2 180 145
43 2 199 100
44 2 199 118
45 2 199 149
46 2 199 155
47 1 43 44
48 1 117 118
49 1 47 48
50 2 195 156
51 2 195 125
52 1 107 108
53 1 151 152
54 1 119 120
55 1 131 132
56 2 171 83
57 2 171 119
58 2 171 146
59 2 171 135
60 2 185 74
61 2 185 107
62 2 185 117
63 2 185 140
64 1 135 136
65 1 147 148
66 1 129 130
67 1 21 22
68 1 125 126
69 1 153 154
70 2 190 6
71 2 190 104
72 1 17 18
73 1 85 86
74 1 5 6
75 1 1 2
76 1 137 138
77 2 162 9
78 2 162 21
79 2 162 59
80 2 162 94
81 2 189 17
82 2 189 33
83 2 189 49
84 2 189 103
85 2 193 150
86 2 193 1
87 1 41 42
88 2 169 54
89 2 169 80
90 2 169 92
91 2 169 141
92 2 165 5
93 2 165 19
94 2 165 42
95 2 165 46
96 2 178 75
97 2 178 157
98 2 178 20
99 2 178 148
100 1 141 142
101 1 93 94
102 1 79 80
103 1 105 106
104 1 19 20
105 1 23 24
106 1 75 76
107 1 29 30
108 1 159 160
109 2 198 116
110 2 198 132
111 2 198 137
112 2 198 152
113 1 53 54
114 2 177 78
115 2 177 151
116 2 177 160
117 2 177 147
118 1 149 150
119 2 174 13
120 2 174 15
121 2 174 53
122 2 174 65
123 1 155 156
124 2 181 22
125 2 181 66
126 2 181 159
127 2 181 52
128 1 115 116
129 2 167 35
130 2 167 77
131 2 167 79
132 2 167 91
133 1 111 112
134 1 57 58
135 2 161 28
136 2 161 57
137 2 161 61
138 2 161 101
139 1 61 62
140 2 194 143
141 2 194 58
142 1 25 26
143 1 27 28
144 1 101 102
145 1 11 12
146 2 168 11
147 2 168 25
148 2 168 109
149 2 168 121
150 1 121 122
151 1 109 110
152 2 197 50
153 2 197 112
154 2 197 122
155 2 197 144
156 1 69 70
157 1 37 38
158 2 191 97
159 1 95 96
160 2 166 39
161 2 166 139
162 2 166 95
163 2 164 8
164 2 164 24
165 2 164 40
166 2 164 44
167 1 97 98
168 1 83 84
169 1 127 128
170 2 170 98
171 2 170 102
172 2 170 120
173 2 170 127
174 1 139 140
175 1 7 8
176 2 187 30
177 2 187 34
178 2 187 123
179 2 187 154
180 2 200 86
181 2 200 124
182 2 200 134
183 2 200 89
184 1 65 66
185 1 123 124
186 1 51 52
187 1 33 34
188 2 196 37
189 2 192 82
190 2 192 114
191 2 192 14
192 2 192 36
193 1 133 134
194 2 173 4
195 2 173 70
196 2 173 87
197 2 173 110
198 1 91 92
199 1 3 4
200 2 183 41
201 2 183 47
202 2 183 51
203 2 183 69
204 2 179 12
205 2 179 23
206 2 179 64
207 2 179 90
208 1 89 90
209 1 49 50
210 1 103 104
211 1 77 78
212 1 81 82
213 1 63 64
214 2 182 16
215 2 182 55
216 2 182 63
217 2 182 81
218 1 15 16
219 1 87 88
220 1 55 56
221 1 13 14
222 1 157 158
223 1 113 114
224 1 35 36
225 1 39 40

