LAMMPS (23 Jun 2022)
OMP_NUM_THREADS environment is not set. Defaulting to 1 thread. (src/comm.cpp:98)
  using 1 OpenMP thread(s) per MPI task
Reading data file ...
  orthogonal box = (0 0 0) to (200 200 200)
  2 by 2 by 3 MPI processor grid
  reading atoms ...
  200 atoms
  scanning bonds ...
  1 = max bonds/atom
  reading bonds ...
  80 bonds
Finding 1-2 1-3 1-4 neighbors ...
  special bond factors lj:    0        0        0       
  special bond factors coul:  0        0        0       
     1 = max # of 1-2 neighbors
     0 = max # of 1-3 neighbors
     0 = max # of 1-4 neighbors
     1 = max # of special neighbors
  special bonds CPU = 0.001 seconds
  read_data CPU = 0.056 seconds
Generated 0 of 1 mixed pair_coeff terms from geometric mixing rule
Neighbor list info ...
  update every 1 steps, delay 0 steps, check yes
  max neighbors/atom: 2000, page size: 100000
  master list distance cutoff = 5.5
  ghost atom cutoff = 5.5
  binsize = 2.75, bins = 73 73 73
  1 neighbor lists, perpetual/occasional/extra = 1 0 0
  (1) pair lj/cut, perpetual
      attributes: half, newton on
      pair build: half/bin/newton
      stencil: half/bin/3d
      bin: standard
Setting up Verlet run ...
  Unit style    : lj
  Current step  : 0
  Time step     : 0.002
Per MPI rank memory allocation (min/avg/max) = 6.325 | 6.364 | 6.44 Mbytes
   Step          Temp         Density         PotEng        Enthalpy        Press           Pxx            Pyy            Pzz            Pxy            Pxz            Pyz             Lx             Ly             Lz             Xy             Yz             Xz          Density    
         0   1              2.75e-05       2.2913944e-28  2.4875         2.4875e-05     2.4540872e-05  2.7057051e-05  2.3027077e-05 -8.5634887e-07  1.0219777e-06  4.891355e-07   200            200            200            0              0              0              2.75e-05     
       100   2.5460692      0.00020837979  4.84198       -3.056329      -0.0022160845  -0.0064438455  -9.1411273e-05 -0.00011299676 -0.00011418486  0.00013728392 -2.0090717e-05  101.8253       101.8253       101.8253       0              0              0              0.00020837979
       200   4.2640173      0.00048094567  1.6515352      17.205317      0.0040179672   0.0058416615   0.0033636118   0.0028486284  -4.2624545e-05 -8.577244e-05   7.8886212e-05  77.050516      77.050516      77.050516      0              0              0              0.00048094567
       300   3.4109398      0.00083253532  0.10441452     9.156491       0.0029980724   0.0036044164   0.0028719584   0.0025178425  -3.4032189e-05 -8.0698972e-05  5.233082e-05   64.171177      64.171177      64.171177      0              0              0              0.00083253532
       400   2.6552059      0.0012518399   1.5398951      0.88016203    -0.0052607182  -0.0047319373  -0.0058799371  -0.0051702803  -0.00041501165 -0.00027537954 -0.00021198168  56.013317      56.013317      56.013317      0              0              0              0.0012518399 
       500   1.8151474      0.0017357826   1.6597927      11.417977      0.011123332    0.010038299    0.012943983    0.010387714   -0.00051069168  0.0006509691   0.00020298644  50.231458      50.231458      50.231458      0              0              0              0.0017357826 
       600   1.8891924      0.0022799994   0.35092858     2.2709439     -0.0018646341  -0.0020794628  -0.0023592279  -0.0011552115   0.00015114297 -0.00044808056 -0.00013990346  45.866541      45.866541      45.866541      0              0              0              0.0022799994 
       700   2.0013857      0.0028743935   0.26129546     2.634524      -0.0016040152  -0.00079797663 -0.0019381729  -0.0020758959  -0.00042507603 -0.00045528515  7.8118769e-05  42.45793       42.45793       42.45793       0              0              0              0.0028743935 
       800   1.0034287      0.0035283965   0.9795952      7.7840864      0.017022505    0.016031148    0.019776659    0.015259707   -0.0012253201   0.0014176036   0.00012133174  39.653522      39.653522      39.653522      0              0              0              0.0035283965 
       900   0.9688013      0.0042286704   0.67232147    -1.3167793     -0.013205126   -0.013270165   -0.015959314   -0.010385897    0.0011274208  -0.0020859923  -0.00040027357  37.331286      37.331286      37.331286      0              0              0              0.0042286704 
      1000   1.4176774      0.0049741143   0.067549901    3.9230845      0.0078665667   0.0070215448   0.0099130247   0.0066651307  -0.0008575838   0.00083500957  0.00019343163  35.364618      35.364618      35.364618      0              0              0              0.0049741143 
      1100   0.92216249     0.0057766409   0.34963473     5.3730185      0.019152486    0.021491496    0.020405616    0.015560345   -0.0020666139   0.0016937136  -5.2626905e-05  33.644631      33.644631      33.644631      0              0              0              0.0057766409 
      1200   0.68635831     0.0066113319   0.69397076    -2.1622855     -0.023323853   -0.028993892   -0.024165525   -0.016812144    0.0022018403  -0.0028761434  -0.00052539674  32.164582      32.164582      32.164582      0              0              0              0.0066113319 
      1300   1.01012        0.0074955166   0.25114396     4.8742211      0.021229163    0.024199782    0.022859686    0.016628021   -0.0020831605   0.000827635    0.00043506462  30.846581      30.846581      30.846581      0              0              0              0.0074955166 
      1400   1.0307118      0.0084295548  -0.00070263969  3.3561343      0.013935583    0.018427028    0.012577279    0.010802442   -0.0010588269   0.00082577386 -0.00065398483  29.662381      29.662381      29.662381      0              0              0              0.0084295548 
      1500   0.88622983     0.0093837657   0.40766855    -0.96584811    -0.023000588   -0.035767098   -0.019585653   -0.013649013    0.0026655573  -0.0014934539   0.0021933717   28.620805      28.620805      28.620805      0              0              0              0.0093837657 
      1600   0.85909596     0.010398122    0.45907356     5.4444347      0.035005375    0.045477772    0.033408248    0.026130105   -0.0042002014  -0.00031121696 -0.0016033835   27.658116      27.658116      27.658116      0              0              0              0.010398122  
      1700   1.0933345      0.011447508    0.043104139    1.486527      -0.0019604258  -0.0032169981  -0.0032870873   0.00062280779  0.0015763853   0.00034922342  0.0008900774   26.785756      26.785756      26.785756      0              0              0              0.011447508  
      1800   1.1778284      0.012517037    0.10955426     1.0340464     -0.0094835539  -0.021866122   -0.00080953233 -0.0057750072   0.001720276   -0.00035210082  0.0017215881   26.000022      26.000022      26.000022      0              0              0              0.012517037  
      1900   0.93439192     0.013651502    0.40798089     5.6947317      0.048303615    0.066162443    0.041876351    0.036872052   -0.0087559667  -0.00020089822 -0.0020523641   25.25888       25.25888       25.25888       0              0              0              0.013651502  
      2000   1.0193261      0.014801117    0.21855742    -0.058691706   -0.024201081   -0.038217549   -0.020490879   -0.013894814    0.006565769    0.0032946562  -0.0012469962   24.587218      24.587218      24.587218      0              0              0              0.014801117  
      2100   1.2229912      0.0159853     -0.046282849    2.7039842      0.013441497    0.010227447    0.016063275    0.014033767    0.00082701781 -0.0011405956  -0.00039169914  23.964441      23.964441      23.964441      0              0              0              0.0159853    
      2200   0.96952152     0.017230887    0.15957609     4.8043692      0.050091475    0.070599092    0.043554483    0.03612085    -0.0030595372  -0.0053598767   0.004365976    23.372492      23.372492      23.372492      0              0              0              0.017230887  
      2300   0.84295438     0.0184745      0.29408416    -0.9607335     -0.042204611   -0.068831898   -0.035628156   -0.02215378     0.00097226117  0.0040725459  -0.0037027158   22.835823      22.835823      22.835823      0              0              0              0.0184745    
      2400   1.0250454      0.019774486    0.013982122    3.5863432      0.036717281    0.048920059    0.034069946    0.027161838   -0.0033669692  -0.0066317015  -0.0025772005   22.324025      22.324025      22.324025      0              0              0              0.019774486  
      2500   0.99420671     0.021119687   -0.048835633    3.2807905      0.03543831     0.048261832    0.0298913      0.028161799    0.0010318422  -0.00068740818  0.0024395998   21.839619      21.839619      21.839619      0              0              0              0.021119687  
      2600   0.86916344     0.02245735     0.19086773    -0.66721379    -0.044002278   -0.069224735   -0.034664132   -0.028117967   -0.0036147423   0.0026537005   0.0045943227   21.39709       21.39709       21.39709       0              0              0              0.02245735   
      2700   0.9405372      0.023867246    0.11402273     4.2575026      0.059445242    0.077086641    0.054528115    0.046720969   -0.0026548471  -0.0062310715  -0.0012960144   20.967185      20.967185      20.967185      0              0              0              0.023867246  
      2800   1.0663871      0.025299305   -0.092686405    2.0562372      0.012818487    0.013022372    0.01347274     0.011960348    0.0028295621   3.1412789e-06  0.00098783805  20.563863      20.563863      20.563863      0              0              0              0.025299305  
      2900   1.0459546      0.02673047     0.040729184    0.58275689    -0.024763583   -0.02702799    -0.020652745   -0.026610013    0.00063433905  0.0047622727  -0.0019014196   20.19011       20.19011       20.19011       0              0              0              0.02673047   
      3000   0.98152675     0.028239789    0.14053033     4.7045331      0.07956109     0.092678219    0.075860855    0.070144196   -0.0028457776  -0.0095481518   0.0041008792   19.823808      19.823808      19.823808      0              0              0              0.028239789  
      3100   1.0513181      0.029743489    0.00086252201  0.75511916    -0.022032775   -0.032018697   -0.014695693   -0.019383936   -0.0012042196   0.0042733681   0.0035337344   19.483946      19.483946      19.483946      0              0              0              0.029743489  
      3200   1.1427043      0.031272598   -0.11146        1.8842594      0.0082512264   0.010580529    0.014828398   -0.00065524698 -0.0020148181   0.0019231201  -0.002035228    19.161062      19.161062      19.161062      0              0              0              0.031272598  
      3300   0.98417733     0.032877034    0.030694249    3.9688091      0.073800878    0.084044556    0.071273392    0.066084685    7.2606834e-05 -0.010987909    0.0027120345   18.844156      18.844156      18.844156      0              0              0              0.032877034  
      3400   0.92515316     0.034459661    0.057972662    0.043291566   -0.043715907   -0.063085653   -0.035971051   -0.032091018   -0.00080887986  0.0052538473   0.0096412357   18.551138      18.551138      18.551138      0              0              0              0.034459661  
      3500   1.0519559      0.036094494   -0.15197137     2.7615197      0.044082759    0.053973922    0.044836208    0.033438147   -0.001779968   -0.003921488    0.0022872126   18.26672       18.26672       18.26672       0              0              0              0.036094494  
      3600   0.98912132     0.037779808   -0.14661962     2.9874834      0.056938961    0.069477305    0.053099409    0.048240169   -0.0010962078   0.0065619969   0.0026012865   17.990959      17.990959      17.990959      0              0              0              0.037779808  
      3700   0.89691459     0.039438781   -0.022295174   -0.016405959   -0.047783878   -0.058534944   -0.038147625   -0.046669064   -0.003695423   -0.01219835     0.0055165867   17.735076      17.735076      17.735076      0              0              0              0.039438781  
      3800   0.96371215     0.041177268   -0.12997565     3.2285704      0.071880748    0.086019355    0.068007392    0.061615497   -0.0085261553  -0.0021430842  -0.0061425917   17.48189       17.48189       17.48189       0              0              0              0.041177268  
      3900   0.99368305     0.042928708   -0.20192446     2.0148192      0.028632345    0.020696637    0.035528104    0.029672293   -0.0099436664  -0.004775128    0.012020982    17.240835      17.240835      17.240835      0              0              0              0.042928708  
      4000   0.96567026     0.044674947   -0.11715735     0.50591763    -0.033229546   -0.032180398   -0.017935743   -0.049572497   -0.0024994931   0.0069571341  -0.00074859883  17.013208      17.013208      17.013208      0              0              0              0.044674947  
      4100   0.96004982     0.046508556   -0.084568701    3.5034043      0.09111866     0.10532309     0.080316524    0.087716369    0.0096295073  -0.0033568457   0.0062453973   16.786621      16.786621      16.786621      0              0              0              0.046508556  
      4200   1.0454998      0.048322953   -0.19548748     1.2926256     -0.0031759369  -0.01952005     0.016026353   -0.0060341144  -0.017809176   -0.0060204486   0.010884351    16.573837      16.573837      16.573837      0              0              0              0.048322953  
      4300   1.1182868      0.050147294   -0.25898206     1.2948861     -0.0052506456   0.0056303179  -0.0018812852  -0.01950097    -0.0047962059  -0.0056876026  -0.011072576    16.370366      16.370366      16.370366      0              0              0              0.050147294  
      4400   1.0625818      0.052059702   -0.21807305     3.5658619      0.10402625     0.11358395     0.092683457    0.10581133    -0.0020883944   0.0042496709   0.0069301529   16.167406      16.167406      16.167406      0              0              0              0.052059702  
      4500   1.021126       0.053917044   -0.21450947     0.84620657    -0.022709593   -0.038031925    0.0071408672  -0.037237721    0.0075261906   0.0040428734   0.012762923    15.979586      15.979586      15.979586      0              0              0              0.053917044  
      4600   1.0700414      0.055842923   -0.3576605      1.8129104      0.029116195    0.033284041    0.026688851    0.027375694   -0.0014980228  -0.0074171424   0.0025876028   15.793735      15.793735      15.793735      0              0              0              0.055842923  
      4700   0.96160248     0.057829273   -0.29951989     2.741475       0.084420391    0.085250735    0.082910192    0.085100246   -0.0052520352   0.0041011271  -0.0064304039   15.610794      15.610794      15.610794      0              0              0              0.057829273  
      4800   0.86730827     0.05977734    -0.21786621     0.33138926    -0.040496546   -0.040488383   -0.035627248   -0.045374009    0.00013586829 -0.0060884316   0.015281744    15.439339      15.439339      15.439339      0              0              0              0.05977734   
      4900   0.95361511     0.061795168   -0.36503564     1.7318644      0.037842768    0.052748508    0.036183305    0.024596491    0.014478799    0.013719471    0.0090298279   15.269426      15.269426      15.269426      0              0              0              0.061795168  
      5000   0.96191326     0.063876765   -0.39922654     2.3187131      0.074461966    0.061419417    0.082850093    0.079116388   -0.016780442   -0.020990468   -0.010866278    15.101726      15.101726      15.101726      0              0              0              0.063876765  
      5100   0.92493964     0.065898092   -0.31018427     0.66750242    -0.024129828   -0.044620849   -0.00084084861 -0.026927787    0.018550712    0.0032436689  -0.01979588     14.945712      14.945712      14.945712      0              0              0              0.065898092  
      5200   1.0435509      0.067973058   -0.44078647     2.3509097      0.076265545    0.10816193     0.06977935     0.050855356   -0.013852804    0.028035564   -0.0019053725   14.792059      14.792059      14.792059      0              0              0              0.067973058  
      5300   1.0279148      0.070077781   -0.39844413     2.0692443      0.059472182    0.071046531    0.0652062      0.042163814   -0.009446178   -0.0032176606   0.0018195635   14.642462      14.642462      14.642462      0              0              0              0.070077781  
      5400   0.98109121     0.072165616   -0.29524054     0.73744705    -0.028314576   -0.073651668   -0.029501648    0.018209587    0.020155196   -0.026351297    0.0031781715   14.49987       14.49987       14.49987       0              0              0              0.072165616  
      5500   1.0504883      0.074350409   -0.39862935     2.266057       0.074136317    0.096840028    0.060913537    0.064655387   -0.018144426    0.0142788     -0.02073448     14.356429      14.356429      14.356429      0              0              0              0.074350409  
      5600   1.0502396      0.076549439   -0.42960487     1.4332333      0.020553913    0.012537077    0.034596454    0.014528208    0.0073656009   0.0030839043   0.0064603782   14.21762       14.21762       14.21762       0              0              0              0.076549439  
      5700   1.0093506      0.078741438   -0.39439846     0.95262512    -0.011412651    0.0081899112  -0.016253506   -0.026174359    0.005342358    0.011125707   -0.0011501444   14.084446      14.084446      14.084446      0              0              0              0.078741438  
      5800   1.028072       0.080991772   -0.47370158     2.0961914      0.076242377    0.081402986    0.088196407    0.059127736   -0.0013710449  -0.01399377    -0.012948172    13.952775      13.952775      13.952775      0              0              0              0.080991772  
      5900   1.0072938      0.083243642   -0.50700059     1.3603699      0.027544911    0.021564404    0.023330757    0.037739571   -0.00080570145  0.024048392   -0.0083098565   13.825808      13.825808      13.825808      0              0              0              0.083243642  
      6000   0.97182438     0.085510051   -0.50445103     0.66439879    -0.021890423    0.028018126   -0.067825823   -0.025863572    0.011222668    0.013116902   -0.0066006884   13.702564      13.702564      13.702564      0              0              0              0.085510051  
      6100   0.98076135     0.08786237    -0.56971519     1.8273108      0.074542407    0.043776835    0.11563617     0.064214216    0.011700099   -0.039057134   -0.017636977    13.579171      13.579171      13.579171      0              0              0              0.08786237   
      6200   0.97337029     0.09018126    -0.59834755     1.0655859      0.017313025    0.046729142   -0.0013094629   0.0065193945   0.0022277659   0.026708687    0.0048858596   13.461769      13.461769      13.461769      0              0              0              0.09018126   
      6300   0.95295106     0.092521637   -0.59326947     0.89621471     0.0056526285  -0.011257429    0.010025853    0.018189462   -0.024634164    0.015367634   -0.010113463    13.347291      13.347291      13.347291      0              0              0              0.092521637  
      6400   0.93744073     0.094915711   -0.58553784     1.384934       0.04929935     0.040113573    0.078484234    0.029300244    0.021270133   -0.023459997    0.0049655336   13.234114      13.234114      13.234114      0              0              0              0.094915711  
      6500   0.92277522     0.097313941   -0.55102963     1.0556238      0.020295393   -0.0066724481   0.038229587    0.02932904     0.010161643    0.030418331   -0.014308487    13.124493      13.124493      13.124493      0              0              0              0.097313941  
      6600   0.96485239     0.099739574   -0.56863738     1.0356852      0.014895687    0.034380028    0.017681298   -0.0073742647  -0.018667012   -0.033868648   -0.045723805    13.017224      13.017224      13.017224      0              0              0              0.099739574  
      6700   1.0056947      0.10222509    -0.58015845     1.4041164      0.044911712    0.11445208     0.0047163634   0.015566696    0.0014757147  -0.042933348   -0.00050859631  12.910857      12.910857      12.910857      0              0              0              0.10222509   
      6800   1.0343619      0.10470922    -0.5811588      0.80908175    -0.014615937   -0.081355052   -0.0025418682   0.04004911     0.029754733    0.030912273    0.019338924    12.807939      12.807939      12.807939      0              0              0              0.10470922   
      6900   1.0738438      0.10722564    -0.61585829     1.6145282      0.061184372    0.083681245    0.024669629    0.075202243    0.018645214   -0.0071128757  -0.023143846    12.706951      12.706951      12.706951      0              0              0              0.10722564   
      7000   1.0954073      0.10969215    -0.66576054     1.8570851      0.088546518    0.061655933    0.12119817     0.082785448   -0.036925558    0.036647465   -0.019030779    12.610986      12.610986      12.610986      0              0              0              0.10969215   
      7100   1.0126756      0.11215653    -0.59701987     1.0582438      0.014666536   -0.039128716    0.071477231    0.011651093    0.032135114    9.697406e-05   0.036603423    12.517936      12.517936      12.517936      0              0              0              0.11215653   
      7200   0.98808014     0.11473663    -0.63490779     0.89666667     0.0059313466   0.0021346943  -0.039912108    0.055571454   -0.016707125   -0.018647552   -0.020095371    12.423392      12.423392      12.423392      0              0              0              0.11473663   
      7300   0.99172715     0.11734583    -0.70129636     1.1783109      0.042613019    0.009154886    0.088541455    0.030142716    0.0032919427  -0.012007671   -0.03344362     12.330623      12.330623      12.330623      0              0              0              0.11734583   
      7400   0.98309872     0.11993367    -0.73682016     1.2784318      0.059746273    0.070262814    0.020265551    0.088710454    0.033314689   -0.016892537    0.019351473    12.24129       12.24129       12.24129       0              0              0              0.11993367   
      7500   0.9931214      0.12249745    -0.78968803     0.98723182     0.03281664    -0.0088672579   0.067214201    0.040102976    0.027239478    0.012114139   -0.0084672825   12.155287      12.155287      12.155287      0              0              0              0.12249745   
      7600   0.97619769     0.12509485    -0.79496894     1.0969528      0.049463269    0.09298118     0.046639151    0.0087694772  -0.0073226541   0.022037604    0.051540586    12.070569      12.070569      12.070569      0              0              0              0.12509485   
      7700   0.98699265     0.12774292    -0.84240444     0.50890736    -0.014141691    0.013526246    0.012067132   -0.068018452    0.0090679912   0.00021764308  0.022370197    11.98658       11.98658       11.98658       0              0              0              0.12774292   
      7800   0.96650008     0.13046592    -0.82848311     1.2350186      0.073653986    0.066098939    0.043448392    0.11141463    -0.00067217387 -0.0070628645   0.025108397    11.902601      11.902601      11.902601      0              0              0              0.13046592   
      7900   0.96062921     0.13316537    -0.82494353     1.1436277      0.064746475    0.046263148    0.084643347    0.063332931   -0.049402773   -0.011409487   -0.022247932    11.821623      11.821623      11.821623      0              0              0              0.13316537   
      8000   1.004289       0.13585937    -0.88961553     0.29266201    -0.039105733   -0.048671494   -0.010921033   -0.05772467    -0.024657958   -0.014826683    0.040059604    11.742963      11.742963      11.742963      0              0              0              0.13585937   
      8100   1.0255764      0.13865149    -0.92732686     0.99806224     0.049752743    0.04940883    -0.013607137    0.11345654     0.049793923    0.002942859   -0.0072336537   11.663602      11.663602      11.663602      0              0              0              0.13865149   
      8200   1.00841        0.14139049    -0.90585444     1.0025124      0.051840804    0.08890921     0.045191055    0.021422147    0.011100137   -0.003654434   -0.019753861    11.587796      11.587796      11.587796      0              0              0              0.14139049   
      8300   1.0032949      0.14416973    -0.91148791     0.32941183    -0.033620097   -0.031824892   -0.022626419   -0.046408978    0.027844247   -0.0038302659  -0.0045573408   11.512851      11.512851      11.512851      0              0              0              0.14416973   
      8400   1.0583837      0.14706637    -1.0191292      0.93036083     0.049448034    0.074624473    0.063557968    0.010161661   -0.029551619   -0.019141462   -0.0017389542   11.436762      11.436762      11.436762      0              0              0              0.14706637   
      8500   1.0012912      0.14992092    -0.96626427     1.122233       0.080966845    0.13643333     0.061624685    0.044842521   -0.0037234524  -0.0083095254  -0.013121187    11.36371       11.36371       11.36371       0              0              0              0.14992092   
      8600   0.96933161     0.15271303    -0.9516661      0.45462427    -0.0056138771  -0.059948975   -0.029030328    0.072137671    0.036309033    0.057888904    0.0070982297   11.294028      11.294028      11.294028      0              0              0              0.15271303   
      8700   0.98833254     0.15560557    -1.001203       0.82736782     0.050003785    0.056858048    0.033264474    0.059888834    0.0081073974   0.0085043544   0.045038445    11.223609      11.223609      11.223609      0              0              0              0.15560557   
      8800   0.95106167     0.15855312    -0.96098681     0.49873531     0.0058034157  -0.0023142961  -0.090060102    0.10978465    -0.034365648   -0.019244746   -0.0076740832   11.153623      11.153623      11.153623      0              0              0              0.15855312   
      8900   0.94827531     0.16147708    -0.9558213      0.60112476     0.020793133    0.027059996    0.047246925   -0.011927523   -0.012086949    0.092540681    0.064543529    11.085891      11.085891      11.085891      0              0              0              0.16147708   
      9000   1.0066982      0.16447686    -1.0526424      0.87392135     0.06340832     0.038357773    0.10312008     0.048747111   -0.045547571    0.070722379    0.039113631    11.018081      11.018081      11.018081      0              0              0              0.16447686   
      9100   1.0354904      0.16751005    -1.1101948      0.29696523    -0.021062002   -0.10022862     0.038056492   -0.0010138807  -0.0023333519  -0.027903865   -0.024322364    10.951172      10.951172      10.951172      0              0              0              0.16751005   
      9200   0.97990693     0.1706039     -1.0500995      0.68409893     0.042137204    0.052915636    0.077433854   -0.003937878    0.048067782   -0.071382355   -0.065642623    10.884569      10.884569      10.884569      0              0              0              0.1706039    
      9300   1.0336797      0.17360282    -1.1570078      0.33377336    -0.0082044471  -0.030910283   -0.016284226    0.022581167    0.033682814    0.040181679    0.030730644    10.821529      10.821529      10.821529      0              0              0              0.17360282   
      9400   1.0269383      0.17671651    -1.1894882      1.157667       0.13084249     0.13600537     0.18840152     0.068120578   -0.0045345043   0.022682665    0.050798404    10.757595      10.757595      10.757595      0              0              0              0.17671651   
      9500   1.0065413      0.1796069     -1.1990809      0.58016652     0.045225749    0.064486367    0.11069592    -0.039505042    0.026173397    0.025419246    0.094751633    10.699576      10.699576      10.699576      0              0              0              0.1796069    
      9600   1.0662134      0.18256389    -1.3472482      0.75696191     0.085122336    0.065247857    0.091326498    0.098792654    0.0044751826  -0.042355735   -0.066671163    10.641494      10.641494      10.641494      0              0              0              0.18256389   
      9700   1.0286372      0.18560224    -1.3688386     -0.053470156   -0.037098957    0.050576841   -0.028928154   -0.13294556    -0.013402825    0.035320529    0.0080739844   10.583106      10.583106      10.583106      0              0              0              0.18560224   
      9800   1.0066623      0.18876369    -1.4178985      0.58658013     0.086150924    0.021725929    0.11812091     0.11860593     0.096247348   -0.042268721    0.026657696    10.523691      10.523691      10.523691      0              0              0              0.18876369   
      9900   0.97841925     0.19176367    -1.4406603     -0.19431084    -0.037296508    0.030146386   -0.074448856   -0.067587054    0.028831541    0.017470989    0.052854771    10.468524      10.468524      10.468524      0              0              0              0.19176367   
     10000   0.91032674     0.19497514    -1.3859134      0.079086911    0.018848356    0.051114273   -0.0040477433   0.0094785369   0.060283926    0.057040601   -0.039866837    10.410729      10.410729      10.410729      0              0              0              0.19497514   
     10100   0.96000294     0.19823204    -1.4762302      0.035078529    0.014147338   -0.024544213    0.027684341    0.039301885   -0.02455694     0.068816672   -0.032248086    10.353399      10.353399      10.353399      0              0              0              0.19823204   
     10200   0.96395236     0.20152162    -1.4787359      0.17049327     0.038569451    0.056690124    0.056644234    0.0023739963  -0.0060239117   0.018781752   -0.017642378    10.296754      10.296754      10.296754      0              0              0              0.20152162   
     10300   0.97110318     0.20484666    -1.4665092      0.053223373    0.013102937   -0.086707485    0.15251553    -0.026499231    0.0058477426  -0.031764418    0.038457351    10.240738      10.240738      10.240738      0              0              0              0.20484666   
     10400   0.98542137     0.20805059    -1.4419083      0.30630252     0.052479709    0.006443087    0.010763088    0.14023295    -0.034437847   -0.018694495    0.080284677    10.187898      10.187898      10.187898      0              0              0              0.20805059   
     10500   1.0692548      0.21128129    -1.5330961      1.0826696      0.19589673     0.18110568     0.20230788     0.20427662     0.022684974   -0.024718353   -0.059047611    10.135703      10.135703      10.135703      0              0              0              0.21128129   
     10600   1.0329738      0.21440039    -1.4739381      0.11354534     0.0089210079  -0.075923761    0.077637173    0.025049612   -0.028252688    0.0080799181  -0.021331063    10.086311      10.086311      10.086311      0              0              0              0.21440039   
     10700   1.0632288      0.21752547    -1.5434274      0.30506307     0.051735747    0.075010449    0.0057886174   0.074408173    0.049799309    0.051336982   -0.081252077    10.037776      10.037776      10.037776      0              0              0              0.21752547   
     10800   1.0643534      0.22089129    -1.6165228      0.36706017     0.079327184    0.079585632    0.1353559      0.023040022   -0.028806328   -0.071045574    0.0052508627   9.986532       9.986532       9.986532       0              0              0              0.22089129   
     10900   1.0035839      0.22423528    -1.598943      -0.41571227    -0.06413501    -0.14337207     0.012517521   -0.061550479    0.067860463    0.090286551    0.038032914    9.9366406      9.9366406      9.9366406      0              0              0              0.22423528   
     11000   0.99466198     0.22774746    -1.6689894     -0.14631155     0.0078976331  -0.067361509    0.098470183   -0.0074157748  -0.047713389   -0.010431874   -0.055461968    9.8852969      9.8852969      9.8852969      0              0              0              0.22774746   
     11100   0.98464261     0.23122107    -1.7342539      0.03626782     0.063258425    0.077657183    0.010877456    0.10124064     0.032882429   -0.020354078   -0.12811634     9.8355449      9.8355449      9.8355449      0              0              0              0.23122107   
     11200   1.0056714      0.23456653    -1.8301323     -0.55708651    -0.048601924   -0.12564188    -0.063999566    0.043835676    0.013347413   -0.027316231    0.0098364939   9.7885616      9.7885616      9.7885616      0              0              0              0.23456653   
     11300   0.96586025     0.2380942     -1.829168       0.66867772     0.22863522     0.19262412     0.24590879     0.24737274     0.0050732464  -0.017416642   -0.025016321    9.7399775      9.7399775      9.7399775      0              0              0              0.2380942    
     11400   0.9803447      0.24131742    -1.891169      -1.0120821     -0.12813464    -0.22851492    -0.15695227     0.0010632541   0.037941322   -0.0097891486   0.078608675    9.6964181      9.6964181      9.6964181      0              0              0              0.24131742   
     11500   0.97476782     0.2448112     -1.9128486     -0.56912974    -0.024730859   -0.035805622   -0.016877555   -0.021509401   -0.054812115   -0.012389233    0.0042454686   9.65007        9.65007        9.65007        0              0              0              0.2448112    
     11600   0.94287287     0.24838361    -1.8775853     -0.12433833     0.078130014    0.067161218    0.041697031    0.12553179     0.011329296   -0.078664433    0.008173404    9.603582       9.603582       9.603582       0              0              0              0.24838361   
     11700   0.92868693     0.25190896    -1.850442      -0.63199039    -0.038384887   -0.059006514   -0.069832307    0.013684162   -0.031220403   -0.048399444   -0.011549079    9.5585721      9.5585721      9.5585721      0              0              0              0.25190896   
     11800   0.94918787     0.25528909    -1.8355819     -0.054084088    0.084671241    0.034517162    0.049402447    0.17009411     0.061445291   -0.11953813     0.0059725658   9.5161981      9.5161981      9.5161981      0              0              0              0.25528909   
     11900   0.97071052     0.25871337    -1.8128347      0.002784831    0.08627716     0.11837785     0.098380099    0.042073531   -0.12472084     0.036599141   -0.14850457     9.4740267      9.4740267      9.4740267      0              0              0              0.25871337   
     12000   0.97320235     0.26237307    -1.7597956     -0.98399286    -0.16140757    -0.34075323    -0.032587081   -0.11088239    -0.040623966   -0.10186545     0.0063027775   9.4297709      9.4297709      9.4297709      0              0              0              0.26237307   
     12100   1.0710912      0.266218      -1.8393462     -0.1216063      0.028832939    0.11304013    -0.070738011    0.044196693    0.029567556    0.07272129     0.076095359    9.3841532      9.3841532      9.3841532      0              0              0              0.266218     
     12200   1.1243274      0.2698884     -1.8770544     -0.17244686     0.0065138604   0.085130825    0.057951532   -0.12354078    -0.031184296    0.01674818    -0.022323309    9.3414183      9.3414183      9.3414183      0              0              0              0.2698884    
     12300   1.0614693      0.27349765    -1.775763      -0.15750632     0.0084569581  -0.18131292     0.1274392      0.079244588   -0.014459256   -0.067711576    0.025717871    9.3001444      9.3001444      9.3001444      0              0              0              0.27349765   
     12400   1.0782164      0.27713665    -1.8276247     -0.3227027     -0.026281625   -0.11594219     0.019192987    0.017904325   -0.053109081    0.07208062     0.042694718    9.2592591      9.2592591      9.2592591      0              0              0              0.27713665   
     12500   1.0149116      0.28092526    -1.7959467     -0.038778082    0.061909038    0.018285527    0.035849539    0.13159205     0.0028704482  -0.13994871     0.013668515    9.2174465      9.2174465      9.2174465      0              0              0              0.28092526   
     12600   0.98192804     0.28467744    -1.8152723     -0.65459911    -0.078895609   -0.049211887    0.036375261   -0.2238502      0.0095974592  -0.10218603     0.027316584    9.1767706      9.1767706      9.1767706      0              0              0              0.28467744   
     12700   0.98093408     0.28858942    -1.8764702     -0.70245193    -0.076089447   -0.017754252   -0.2058608     -0.0046532863   0.091939315    0.065746046   -0.10063637     9.1351166      9.1351166      9.1351166      0              0              0              0.28858942   
     12800   0.90504004     0.29251564    -1.800138      -0.13201273     0.084391553    0.32884879    -0.056827812   -0.018846318   -0.0090425942  -0.039587079    0.093674292    9.094061       9.094061       9.094061       0              0              0              0.29251564   
     12900   0.93875169     0.29628874    -1.8548382     -0.61178632    -0.042567274    0.061752889    0.025642556   -0.21509727     0.10971073    -0.16422816    -0.052464345    9.0552931      9.0552931      9.0552931      0              0              0              0.29628874   
     13000   0.99327578     0.30014059    -1.911101      -0.62528219    -0.05365568    -0.089313798   -0.11755519     0.045901951    0.17680803     0.042516177   -0.017034121    9.0163892      9.0163892      9.0163892      0              0              0              0.30014059   
     13100   1.0035976      0.30409923    -1.8957311     -0.14083059     0.071057244    0.10229946     0.04115911     0.069713164    0.05310435     0.024437211    0.088387122    8.9770943      8.9770943      8.9770943      0              0              0              0.30409923   
     13200   1.0217622      0.30794149    -1.8818444     -1.251519      -0.2504557     -0.18711783    -0.22865482    -0.33559444     0.043326752   -0.051451062   -0.0082438118   8.9396015      8.9396015      8.9396015      0              0              0              0.30794149   
     13300   1.0092982      0.31218311    -1.8159069     -0.68825323    -0.10748294     0.015676428   -0.2134199     -0.12470534     0.098378965   -0.088966363    0.027237498    8.8989293      8.8989293      8.8989293      0              0              0              0.31218311   
     13400   1.0497784      0.3164083     -1.821637      -0.18800698     0.019224895    0.16829435     0.049408117   -0.16002779    -0.013045235   -0.044183368    0.037366684    8.8591408      8.8591408      8.8591408      0              0              0              0.3164083    
     13500   1.0653741      0.32029797    -1.8004413     -0.011021971    0.058046258    0.003973887    0.089615424    0.080549464    0.11140127     0.011223683   -0.024320299    8.8231331      8.8231331      8.8231331      0              0              0              0.32029797   
     13600   1.0561887      0.32409451    -1.7837985      0.24932185     0.13457543     0.24626344    -0.032351755    0.18981462     0.067086496    0.00060675155  0.087357787    8.7885455      8.7885455      8.7885455      0              0              0              0.32409451   
     13700   1.1229135      0.32754693    -1.9125587      0.14668777     0.11413462     0.046508255    0.089601439    0.20629417    -0.041087051   -0.015920621   -0.14241318     8.7575585      8.7575585      8.7575585      0              0              0              0.32754693   
     13800   1.0771254      0.33109385    -1.9369407     -0.86949584    -0.16258658    -0.10430855    -0.27635788    -0.10709332     0.11766931    -0.013515436    0.046684508    8.7261737      8.7261737      8.7261737      0              0              0              0.33109385   
     13900   1.0308203      0.3350051     -1.9603226     -0.45503648    -0.010115072   -0.068974084    0.057499976   -0.018871107   -0.086095339    0.090207481    0.16580172     8.6920808      8.6920808      8.6920808      0              0              0              0.3350051    
     14000   0.97449282     0.338985      -1.9349177     -0.62493072    -0.044512921   -0.031499236   -0.048656164   -0.053383362    0.058347168   -0.056689675   -0.065499431    8.6579299      8.6579299      8.6579299      0              0              0              0.338985     
     14100   0.96030193     0.34318122    -1.9406592     -0.32627069     0.056511924    0.044213416   -0.0011817323   0.12650409    -0.07444861     0.0044464164   0.11463828     8.622497       8.622497       8.622497       0              0              0              0.34318122   
     14200   0.97428068     0.34730112    -1.9622336     -0.8526531     -0.10877894     0.037142996   -0.088727039   -0.27475278    -0.049822806   -0.046124068   -0.11429121     8.5882662      8.5882662      8.5882662      0              0              0              0.34730112   
     14300   0.99247024     0.35168796    -1.9825453     -0.47138938     0.0095576304   0.040714506   -0.18527683     0.17323522     0.067680145    0.017503175    0.059934208    8.5524077      8.5524077      8.5524077      0              0              0              0.35168796   
     14400   0.98116291     0.35613185    -1.9537441     -0.70971038    -0.071340307    0.023987449   -0.21910521    -0.018903162   -0.010501765    0.091041066   -0.24413561     8.5166857      8.5166857      8.5166857      0              0              0              0.35613185   
     14500   1.0267393      0.3602499     -1.9884658     -0.77041077    -0.1029507     -0.16442947    -0.17246011     0.028037479    0.070886251    0.10145531     0.17594028     8.4841096      8.4841096      8.4841096      0              0              0              0.3602499    
     14600   1.0773828      0.36482547    -2.0377075      0.25906564     0.22844022     0.19150108     0.19881421     0.29500537    -0.077163588   -0.020630691   -0.11470766     8.4484916      8.4484916      8.4484916      0              0              0              0.36482547   
     14700   1.0815374      0.36894544    -2.0207782     -0.77412651    -0.1232757     -0.11509851    -0.16311905    -0.091609529    0.015186051   -0.22732525     0.051187795    8.4169261      8.4169261      8.4169261      0              0              0              0.36894544   
     14800   1.0718025      0.37319258    -2.0390175     -0.6214903     -0.06179324    -0.18524975     0.076123282   -0.076253256    0.027615751   -0.063190664   -0.088526362    8.3848744      8.3848744      8.3848744      0              0              0              0.37319258   
     14900   1.0411431      0.37753162    -2.0822946     -0.33694615     0.065705046   -0.065434021   -0.022441626    0.28499078    -0.034163624   -0.060722879   -0.11373578     8.3526276      8.3526276      8.3526276      0              0              0              0.37753162   
     15000   1.0029074      0.38179673    -2.1396848     -0.49382855     0.051721985    0.019187883   -0.11669436     0.25267244    -0.12812367     0.090397876    0.049327537    8.3214082      8.3214082      8.3214082      0              0              0              0.38179673   
     15100   0.95842037     0.3860407     -2.1540541     -0.7436356     -0.0070273105  -0.028920683   -0.026113632    0.033952384    0.0010017277   0.057293285    0.1068231      8.2908017      8.2908017      8.2908017      0              0              0              0.3860407    
     15200   1.0156221      0.39038012    -2.2829683     -0.62453653     0.050613054   -0.013189243   -0.03070273     0.19573114    -0.045447611    0.003293613   -0.033043501    8.2599673      8.2599673      8.2599673      0              0              0              0.39038012   
     15300   0.98789435     0.39472824    -2.2798616     -0.89002205    -0.030355601   -0.012197283   -0.14460438     0.065734866    0.0680312     -0.14655996     0.0018635656   8.2295261      8.2295261      8.2295261      0              0              0              0.39472824   
     15400   0.96546765     0.39913343    -2.2858748     -0.32504896     0.18863242     0.18894044     0.23483669     0.14212011    -0.03794337    -0.003780939   -0.083488442    8.199138       8.199138       8.199138       0              0              0              0.39913343   
     15500   1.0154806      0.40313027    -2.3890402     -0.69575868     0.065115323    0.043774397    0.29019228    -0.13862071    -0.10954691     0.038684549   -0.073688959    8.171951       8.171951       8.171951       0              0              0              0.40313027   
     15600   0.94499978     0.40721653    -2.3128605     -1.1590506     -0.094993337   -0.16135075    -0.12434719     0.00071793101  0.0034858935   0.092584052    0.13192067     8.144525       8.144525       8.144525       0              0              0              0.40721653   
     15700   0.92485173     0.41185195    -2.3094184     -1.0311804     -0.038228549   -0.016308809    0.14766068    -0.24603752    -0.16075667    -0.225506      -0.025917299    8.1138539      8.1138539      8.1138539      0              0              0              0.41185195   
     15800   0.99455105     0.41662302    -2.4153253     -1.5189192     -0.22268931    -0.21505384    -0.15712361    -0.29589046    -0.016963319    0.18759033    -0.13313621     8.0827623      8.0827623      8.0827623      0              0              0              0.41662302   
     15900   1.0080371      0.42146126    -2.4080287     -1.0405795     -0.052508812    0.080416856    0.050658355   -0.28860165     0.17743636    -0.027110798    0.10851016     8.051714       8.051714       8.051714       0              0              0              0.42146126   
     16000   1.0761835      0.42626149    -2.4471982     -1.2781707     -0.1694104      0.01246783    -0.12355954    -0.3971395      0.039731262   -0.011079948   -0.1192008      8.0213757      8.0213757      8.0213757      0              0              0              0.42626149   
     16100   1.0407451      0.43107265    -2.3370957     -0.90674929    -0.048188273   -0.016748       0.064781924   -0.19259874     0.011603192    0.12072501    -0.16570136     7.9914221      7.9914221      7.9914221      0              0              0              0.43107265   
     16200   1.1307095      0.43562773    -2.4364773     -0.87645842    -0.050519013   -0.004072055   -0.11271569    -0.034769292    0.030440485    0.0089941405   0.00024851057  7.9634707      7.9634707      7.9634707      0              0              0              0.43562773   
     16300   1.0776571      0.44025571    -2.3802574     -0.45150595     0.12821375     0.056604792    0.0019552623   0.32608121     0.066226596    0.0074290698  -0.048823552    7.9354683      7.9354683      7.9354683      0              0              0              0.44025571   
     16400   1.0151299      0.44465881    -2.3804314     -1.1968518     -0.13400473    -0.32919124    -0.36972592     0.29690298     0.23415848    -0.10267963     0.035818381    7.9091885      7.9091885      7.9091885      0              0              0              0.44465881   
     16500   1.0438835      0.44934704    -2.5380764     -1.1205964     -0.057400443   -0.022770168    0.052825459   -0.20225662    -0.12540202    -0.1514031      0.16410124     7.8815856      7.8815856      7.8815856      0              0              0              0.44934704   
     16600   0.99561873     0.45421544    -2.5426951     -1.5979853     -0.22349514    -0.41351421    -0.018980515   -0.23799069    -0.17981892     0.087789663    0.16367527     7.8533255      7.8533255      7.8533255      0              0              0              0.45421544   
     16700   0.90803599     0.45925488    -2.4395907     -1.4430525     -0.14976115    -0.3111005      0.13999916    -0.27818211     0.34749814     0.28307264     0.0080606973   7.8244947      7.8244947      7.8244947      0              0              0              0.45925488   
     16800   0.93093679     0.46439369    -2.4799609     -0.39568198     0.29335149     0.091333512    0.72097041     0.067750538   -0.11007538    -0.14601369    -0.002653254    7.7955266      7.7955266      7.7955266      0              0              0              0.46439369   
     16900   0.97997296     0.46908699    -2.5341632     -1.8489783     -0.33152713    -0.15923069    -0.3566118     -0.4787389      0.051485118   -0.10704743     0.11214853     7.7694409      7.7694409      7.7694409      0              0              0              0.46908699   
     17000   0.94824138     0.47437479    -2.4545717     -2.018968      -0.4224724     -0.46815076    -0.52290183    -0.27636461     0.11420739     0.33254392    -0.11296371     7.7404645      7.7404645      7.7404645      0              0              0              0.47437479   
     17100   1.0144192      0.48008179    -2.5041147     -1.1052506     -0.050258717   -0.13707007     0.12755624    -0.14126232    -0.048261176   -0.11310048    -0.14095677     7.7096705      7.7096705      7.7096705      0              0              0              0.48008179   
     17200   1.0335263      0.48549224    -2.480504      -1.2282972     -0.12813962    -0.027794795   -0.10007829    -0.25654576    -0.0052000929   0.0074524879   0.00065216855  7.6809239      7.6809239      7.6809239      0              0              0              0.48549224   
     17300   1.0558161      0.49092414    -2.4859384     -1.4879527     -0.25787788    -0.083575209   -0.42248071    -0.26757771    -0.100652       0.033838316    0.34060395     7.6524899      7.6524899      7.6524899      0              0              0              0.49092414   
     17400   1.1070298      0.49636133    -2.5673972     -1.2923761     -0.17021626    -0.012824865   -0.27922344    -0.21860048    -0.049584338   -0.0077282078   0.068723246    7.6244452      7.6244452      7.6244452      0              0              0              0.49636133   
     17500   1.0807022      0.50147782    -2.585685      -0.78790665     0.084262092   -0.32241852     0.53486293     0.040341859    0.21671368     0.091004398   -0.04476461     7.5984262      7.5984262      7.5984262      0              0              0              0.50147782   
     17600   1.0509027      0.50623308    -2.6515207     -1.6111256     -0.24302741    -0.31203985    -0.32366937    -0.093373003   -0.1189422     -0.15986775    -0.088586878    7.5745596      7.5745596      7.5745596      0              0              0              0.50623308   
     17700   0.99639117     0.51137669    -2.684141      -1.3701422     -0.080479111    0.35636534    -0.27361764    -0.32418504     0.14494098    -0.013333857    0.080903883    7.5490781      7.5490781      7.5490781      0              0              0              0.51137669   
     17800   0.96923598     0.51651542    -2.6887961     -1.4081515     -0.077918743    0.17241858    -0.14479082    -0.26138399    -0.13623737     0.086214435   -0.16121991     7.5239598      7.5239598      7.5239598      0              0              0              0.51651542   
     17900   0.97407775     0.52180899    -2.7192865     -1.8793659     -0.2912123     -0.39561686    -0.22006593    -0.25795412     0.21132794    -0.032480713   -0.010600064    7.4984306      7.4984306      7.4984306      0              0              0              0.52180899   
     18000   0.95792036     0.52755652    -2.7156702     -1.4542332     -0.080696577   -0.024949227   -0.017018868   -0.20012163    -0.30370897    -0.16851175    -0.12490048     7.4711002      7.4711002      7.4711002      0              0              0              0.52755652   
     18100   1.0437871      0.53313468    -2.8586887     -1.5090888     -0.10093323     0.075158747   -0.062213944   -0.31574449    -0.11778842     0.071522717   -0.057771775    7.4449522      7.4449522      7.4449522      0              0              0              0.53313468   
     18200   0.99225574     0.53847141    -2.8061524     -0.85708564     0.22915632     0.29580625     0.044385233    0.34727746    -0.25750306     0.099178129   -0.12092178     7.4202752      7.4202752      7.4202752      0              0              0              0.53847141   
     18300   1.0165429      0.54302903    -2.8716642     -1.9343932     -0.28628457    -0.38318609    -0.14000976    -0.33565786    -0.22748632     0.024026811    0.35838663     7.3994575      7.3994575      7.3994575      0              0              0              0.54302903   
     18400   0.99971529     0.54811861    -2.8951254     -1.588605      -0.092459969    0.066262835   -0.23314381    -0.11049893     0.20418902    -0.1599794     -0.092140369    7.3764835      7.3764835      7.3764835      0              0              0              0.54811861   
     18500   1.0067886      0.55334904    -2.9584873     -1.6951005     -0.12035103    -0.14247634    -0.086330479   -0.13224626    -0.26078427     0.12080529     0.0929972      7.3531683      7.3531683      7.3531683      0              0              0              0.55334904   
     18600   0.93735397     0.55874286    -2.9034997     -1.524731      -0.010276815    0.023669481   -0.079703595    0.025203671   -0.20448017     0.021701564    0.10450963     7.3294305      7.3294305      7.3294305      0              0              0              0.55874286   
     18700   0.97903737     0.56396736    -3.002845      -1.8881142     -0.17764072    -0.39098875    -0.31428045     0.17234703    -0.065055912    0.039916875    0.2043321      7.3067274      7.3067274      7.3067274      0              0              0              0.56396736   
     18800   0.96279874     0.56950461    -3.0096677     -1.7860033     -0.11043868     0.0006030904  -0.41177007     0.079850957    0.12253148     0.0023014674  -0.0194045      7.2829693      7.2829693      7.2829693      0              0              0              0.56950461   
     18900   0.93983703     0.57510306    -3.0051202     -1.532663       0.036466997   -0.087034636   -0.14331803     0.33975366     0.039136906    0.12643539     0.067384653    7.2592597      7.2592597      7.2592597      0              0              0              0.57510306   
     19000   1.0186542      0.58027443    -3.1492513     -2.3998486     -0.40668731    -0.51878488    -0.35738488    -0.34389217     0.33337646    -0.084060449   -0.13590264     7.2376307      7.2376307      7.2376307      0              0              0              0.58027443   
     19100   1.0331301      0.5856997     -3.1986786     -1.9600778     -0.16151779     0.06199753    -0.27764158    -0.26890932     0.011392968    0.3376138     -0.037872631    7.2152142      7.2152142      7.2152142      0              0              0              0.5856997    
     19200   0.95897912     0.59121449    -3.1350633     -1.9178117     -0.11503139    -0.14792437    -0.41151232     0.21434251    -0.0029263092   0.049241979   -0.012348521    7.1927098      7.1927098      7.1927098      0              0              0              0.59121449   
     19300   0.95905255     0.59707982    -3.1843663     -1.7902118     -0.020209167   -0.19066272     0.1386635     -0.0086282883   0.11064145    -0.040688406   -0.15584603     7.1690801      7.1690801      7.1690801      0              0              0              0.59707982   
     19400   0.96062368     0.60256659    -3.2319394     -2.3239263     -0.28798179    -0.14605462    -0.5282844     -0.18960633    -0.069587849   -0.28348772     0.079560559    7.1472539      7.1472539      7.1472539      0              0              0              0.60256659   
     19500   0.98578043     0.60833568    -3.3140228     -2.1828382     -0.18808229    -0.29503206    -0.36461286     0.095398049   -0.038708657    0.13861957     0.23069574     7.1245887      7.1245887      7.1245887      0              0              0              0.60833568   
     19600   0.99731143     0.61418903    -3.3724105     -2.2037921     -0.17859997     0.074858291   -0.45589021    -0.15476799    -0.06452127     0.074304135    0.15971031     7.1018834      7.1018834      7.1018834      0              0              0              0.61418903   
     19700   0.93364572     0.61957062    -3.3084842     -1.7056519      0.11792461    -0.0015610791   0.31314736     0.04218754    -0.057529785   -0.0091419829   0.095419877    7.0812613      7.0812613      7.0812613      0              0              0              0.61957062   
     19800   0.9739227      0.62420206    -3.3918531     -1.7757573      0.092220824    0.16853657    -0.076627347    0.18475325    -0.11045363    -0.069471948   -0.2267354      7.0637041      7.0637041      7.0637041      0              0              0              0.62420206   
     19900   1.0035922      0.62914575    -3.4775919     -2.5611009     -0.33251521    -0.49886469    -0.27905449    -0.21962644     0.096170649    0.012634167   -0.016266948    7.0451537      7.0451537      7.0451537      0              0              0              0.62914575   
     20000   0.96358271     0.63482757    -3.4755979     -2.3705837     -0.19225636     0.12116566    -0.39793502    -0.29999971    -0.1904753     -0.13777782     0.2766643      7.0240722      7.0240722      7.0240722      0              0              0              0.63482757   
     20100   0.90199117     0.6407492     -3.4374418     -1.8950049      0.11429516     0.088009185    0.16328186     0.09159445     0.16724095     0.014018741   -0.21066927     7.002367       7.002367       7.002367       0              0              0              0.6407492    
     20200   0.90519005     0.64623793    -3.4781195     -2.7946909     -0.39218861    -0.56229205    -0.24541662    -0.36885718     0.19381667    -0.25649704     0.19254692     6.9824861      6.9824861      6.9824861      0              0              0              0.64623793   
     20300   0.87789899     0.65235984    -3.4466193     -2.7943786     -0.39024377    -0.6703007     -0.15329061    -0.34714       -0.041425296    0.079804316   -0.33866969     6.9605756      6.9605756      6.9605756      0              0              0              0.65235984   
     20400   0.94365713     0.6591263     -3.5058509     -2.1358495     -0.023013582    0.29146262    -0.29677876    -0.063724596   -0.23647346    -0.21786327    -0.17978163     6.936675       6.936675       6.936675       0              0              0              0.6591263    
     20500   1.0126938      0.66519496    -3.5198372     -2.0994836     -0.055085361    0.15722601     0.076461122   -0.39894322     0.15088711    -0.097498307    0.30660224     6.9155158      6.9155158      6.9155158      0              0              0              0.66519496   
     20600   1.0380583      0.67040677    -3.4664312     -1.7290266      0.11464118     0.29074911     0.11513369    -0.061959275    0.17084382    -0.2812558      0.030087862    6.8975485      6.8975485      6.8975485      0              0              0              0.67040677   
     20700   1.0811527      0.67514129    -3.4705703     -1.6036511      0.15546593     0.4089446     -0.44406648     0.50151968     0.011500179   -0.3076112     -0.047594393    6.8813873      6.8813873      6.8813873      0              0              0              0.67514129   
     20800   1.0990638      0.67947693    -3.4875214     -2.4336212     -0.3622554     -0.36653821    -0.13095124    -0.58927676    -0.22670928     0.30728852    -0.29382521     6.8667197      6.8667197      6.8667197      0              0              0              0.67947693   
     20900   1.0402653      0.68460657    -3.4386095     -1.1529633      0.45622817     0.41978627     0.62623025     0.32266798    -0.075327612   -0.17783326     0.30148627     6.8495263      6.8495263      6.8495263      0              0              0              0.68460657   
     21000   1.0374364      0.68943294    -3.4956609     -1.7328482      0.13440108    -0.11979646     0.23349232     0.28950739    -0.37017628     0.11356706    -0.092987757    6.8335055      6.8335055      6.8335055      0              0              0              0.68943294   
     21100   1.0010518      0.69426651    -3.5091661     -1.8193844      0.12352376    -0.22126843     0.49709771     0.094742002    0.21071441    -0.070613075   -0.00062905996  6.81761        6.81761        6.81761        0              0              0              0.69426651   
     21200   1.0512481      0.69911527    -3.637786      -2.4878414     -0.26632684     0.1854594     -0.28231174    -0.70212819     0.45878328    -0.26605825     0.23631948     6.8018121      6.8018121      6.8018121      0              0              0              0.69911527   
     21300   1.0199712      0.70482659    -3.6397258     -2.1509651     -0.021494907   -0.37318894     0.24044201     0.068262208   -0.16528955     0.38535002    -0.28269038     6.7833902      6.7833902      6.7833902      0              0              0              0.70482659   
     21400   0.99208896     0.71045296    -3.6377473     -2.5427277     -0.24909333    -0.3549277     -0.24719864    -0.14515364    -0.0035433296  -0.31857932     0.17800904     6.7654359      6.7654359      6.7654359      0              0              0              0.71045296   
     21500   1.0432454      0.71567665    -3.7388339     -2.358826      -0.11518221     0.019310929   -0.49282093     0.12796337     0.052585547   -0.14760673     0.0013314867   6.7489355      6.7489355      6.7489355      0              0              0              0.71567665   
     21600   1.0398554      0.7208738     -3.7593972     -1.7092265      0.32648141     0.036506394    0.70283983     0.240098      -0.14524073    -0.038436594    0.16191812     6.7326775      6.7326775      6.7326775      0              0              0              0.7208738    
     21700   1.0081206      0.72596905    -3.7395366     -2.1035108      0.086724152    0.41908647     0.27378858    -0.43270259    -0.18676884     0.10675479     0.096226638    6.7168893      6.7168893      6.7168893      0              0              0              0.72596905   
     21800   0.98775032     0.73108125    -3.7479093     -1.8699302      0.26834786     0.28611882     0.24101099     0.27791375     0.32928747     0.22292963     0.1725897      6.7011964      6.7011964      6.7011964      0              0              0              0.73108125   
     21900   0.948453       0.73552949    -3.7293187     -2.3886739     -0.050097125    0.29485894    -0.2868001     -0.15835022    -0.59015419     0.028162148   -0.099622352    6.6876602      6.6876602      6.6876602      0              0              0              0.73552949   
     22000   1.0070485      0.74051602    -3.8587749     -2.2449828      0.074571517    0.20642991     0.10939752    -0.092112882   -0.059081526   -0.36037939     0.30083561     6.6726151      6.6726151      6.6726151      0              0              0              0.74051602   
     22100   0.9710968      0.74534338    -3.8506363     -2.0256477      0.25451888     0.25976717     0.34929699     0.15449249     0.40813174     0.22201853    -0.4066845      6.6581784      6.6581784      6.6581784      0              0              0              0.74534338   
     22200   0.94465937     0.7503334     -3.8879738     -2.5164431     -0.026175343    0.013625591   -0.084125872   -0.0080257478   0.13511411    -0.16298429     0.53213578     6.6433857      6.6433857      6.6433857      0              0              0              0.7503334    
     22300   0.95933923     0.75582358    -4.0089131     -2.3970523      0.12371254     0.1380914      0.25234957    -0.019303348    0.21690343    -0.28685392    -0.54879023     6.6272611      6.6272611      6.6272611      0              0              0              0.75582358   
     22400   0.92770238     0.76125928    -4.0447952     -2.2345433      0.29457698     0.48578687    -0.1052955      0.50323958    -0.10398726    -0.23714729     0.10300322     6.6114496      6.6114496      6.6114496      0              0              0              0.76125928   
     22500   0.88320175     0.76631627    -4.0168735     -2.7288905     -0.02103579     0.38906079    -0.2941191     -0.15804906    -0.14701415    -0.28518246     0.32231528     6.5968744      6.5968744      6.5968744      0              0              0              0.76631627   
     22600   0.94277981     0.771312      -4.104768      -2.1914808      0.35493552     0.31893961     0.52623465     0.21963231    -0.32078487    -0.096729861   -0.031336672    6.582601       6.582601       6.582601       0              0              0              0.771312     
     22700   0.97791199     0.77582172    -4.1312821     -2.6629794      0.0061847752  -0.22346696     0.54851889    -0.3064976      0.11373824    -0.01241199    -0.44713916     6.5698217      6.5698217      6.5698217      0              0              0              0.77582172   
     22800   0.98085577     0.7802326     -4.1001259     -1.8949024      0.52580324     0.86532614     0.3320658      0.38001779     0.48934902    -0.27116489    -0.10144661     6.5574179      6.5574179      6.5574179      0              0              0              0.7802326    
     22900   1.0785791      0.78367133    -4.214542      -2.3666376      0.16964709     0.51306115     0.051593825   -0.055713715    0.2287012     -0.55300209     0.0019287244   6.5478126      6.5478126      6.5478126      0              0              0              0.78367133   
     23000   0.99104462     0.78801376    -4.0804167     -2.1614168      0.31510938     0.34323078    -0.14759995     0.7496973      0.12064381    -0.15761215    -0.4757964      6.535763       6.535763       6.535763       0              0              0              0.78801376   
     23100   0.97849535     0.79192708    -4.0618391     -1.1603205      1.0375067      0.92839639     1.1906487      0.99347515     0.25063059     0.1819162      0.059709428    6.5249797      6.5249797      6.5249797      0              0              0              0.79192708   
     23200   1.0505198      0.79383264    -4.1741804     -1.8856187      0.52007655     0.22328724     0.37761145     0.95933096     0.1191175      0.12971684    -0.11687332     6.5197545      6.5197545      6.5197545      0              0              0              0.79383264   
     23300   1.0131326      0.79578724    -4.1419868     -1.0533691      1.1405203      1.3493572      1.24357        0.82863365    -0.1761974     -0.043335609    0.17412892     6.5144122      6.5144122      6.5144122      0              0              0              0.79578724   
     23400   0.97317432     0.7972492     -4.1149367     -1.7934396      0.62985186     1.0932489      0.54780172     0.24850495    -0.36131504    -0.72249561    -0.03883721     6.5104278      6.5104278      6.5104278      0              0              0              0.7972492    
     23500   1.0418418      0.79905594    -4.2486945     -2.3914496      0.21959221     0.43683332    -0.1389547      0.36089801     0.20268369     0.15119679     0.21089258     6.5055172      6.5055172      6.5055172      0              0              0              0.79905594   
     23600   1.0350024      0.80116718    -4.2633106     -1.3021501      1.0316262      1.3978095      0.45330177     1.2437673      0.49451788    -0.26914633    -0.1798504      6.4997978      6.4997978      6.4997978      0              0              0              0.80116718   
     23700   1.0244122      0.80310387    -4.26657       -1.9067298      0.6066391      0.5029914      0.70301557     0.61391034    -0.30527084    -0.55137356    -0.16149487     6.4945688      6.4945688      6.4945688      0              0              0              0.80310387   
     23800   0.9741058      0.80528931    -4.1961587     -2.0955697      0.47346332     0.82669023     0.021413751    0.57228597     0.18292971     0.062475413   -0.39095806     6.4886884      6.4886884      6.4886884      0              0              0              0.80528931   
     23900   1.0478886      0.80722791    -4.3012882     -2.117643       0.45474201     0.89567774     0.12929051     0.33925779     0.099978632   -0.35876986     0.20840636     6.4834899      6.4834899      6.4834899      0              0              0              0.80722791   
     24000   1.0322183      0.808747      -4.2817077     -1.7569584      0.72358112     1.1150247      0.97676739     0.078951311   -0.081024017   -0.69402728     0.11028618     6.479428       6.479428       6.479428       0              0              0              0.808747     
     24100   0.99495657     0.81008803    -4.2389027     -1.7510977      0.73852954     0.95959797     0.45208952     0.80390112    -0.011716813   -0.14339822     0.016588582    6.4758506      6.4758506      6.4758506      0              0              0              0.81008803   
     24200   0.96418347     0.81104502    -4.2037413     -1.8096115      0.70419793     0.66073278     1.0719916      0.37986939     0.15156756    -0.10573355     0.60560952     6.4733026      6.4733026      6.4733026      0              0              0              0.81104502   
     24300   1.01197        0.81217101    -4.2818554     -1.9459914      0.60949649     1.2059823      0.23613257     0.38637462     0.47449223    -0.26544889    -0.26368381     6.4703097      6.4703097      6.4703097      0              0              0              0.81217101   
     24400   1.0166906      0.81387753    -4.3013882     -2.1043537      0.50284602     0.85101176     0.28030656     0.37721975     0.37480968    -0.10252932     0.6030622      6.4657842      6.4657842      6.4657842      0              0              0              0.81387753   
     24500   1.0674938      0.81641752    -4.3958415     -2.4167366      0.28639213     0.7107321      0.097457506    0.050986775    0.12703248    -0.14342537     0.26365101     6.459072       6.459072       6.459072       0              0              0              0.81641752   
     24600   0.97926358     0.81894155    -4.2877822     -2.1351256      0.51452288     0.63128431     0.83448816     0.077796178   -0.1935873     -0.028526978    0.24602845     6.4524293      6.4524293      6.4524293      0              0              0              0.81894155   
     24700   0.97893828     0.8213715     -4.3032964     -1.6636737      0.88003033     0.86220126     0.59033763     1.1875521     -0.24100426    -0.077820394   -0.49828817     6.4460601      6.4460601      6.4460601      0              0              0              0.8213715    
     24800   0.99062908     0.82436829    -4.3480973     -1.8415326      0.77044767     1.2521126      0.29850329     0.76072711     0.72643024     0.060271133    0.11798474     6.4382396      6.4382396      6.4382396      0              0              0              0.82436829   
     24900   0.99260332     0.82666494    -4.3792847     -2.157093       0.55666958     0.85552033    -0.13005567     0.94454409     0.3454756      0.028474064   -0.23935235     6.4322718      6.4322718      6.4322718      0              0              0              0.82666494   
     25000   1.0400997      0.82805059    -4.4773855     -2.3508501      0.43223237     0.94083524     0.56695042    -0.21108856     0.33686157     0.21586536    -0.14907001     6.4286819      6.4286819      6.4286819      0              0              0              0.82805059   
     25100   0.90265527     0.8304438     -4.3011521     -1.5641215      1.0492413      0.58554233     1.0591397      1.5030418      0.31541623    -0.38281059    -0.067310684    6.4225005      6.4225005      6.4225005      0              0              0              0.8304438    
     25200   0.94425002     0.83295259    -4.380561      -1.7153869      0.9509902      1.5107479      0.65957703     0.68264563    -0.32958454    -0.17039075    -0.12787603     6.416046       6.416046       6.416046       0              0              0              0.83295259   
     25300   0.99101628     0.83464143    -4.4516017     -1.8599322      0.84418495     0.90818395     0.60132        1.0230509      0.34760408    -0.10718883     0.23106093     6.4117156      6.4117156      6.4117156      0              0              0              0.83464143   
     25400   1.0489653      0.83539559    -4.5145025     -2.4501012      0.37882953     0.66491969     0.10479129     0.36677762     0.57008464     0.41764581     0.081527729    6.4097856      6.4097856      6.4097856      0              0              0              0.83539559   
     25500   0.99000055     0.83728395    -4.3923596     -1.7115118      0.91589118     0.3476298      0.92676935     1.4732744     -0.59369672     0.54387671    -0.5140618      6.4049632      6.4049632      6.4049632      0              0              0              0.83728395   
     25600   1.0848875      0.83914588    -4.4942427     -1.5598968      1.0032762      0.54811273     1.0413022      1.4204137     -0.26060415    -0.33149458    -0.24581054     6.4002225      6.4002225      6.4002225      0              0              0              0.83914588   
     25700   1.0377449      0.83976508    -4.397228      -1.5133867      1.0191748      1.2637836      0.77764086     1.0161         0.69565945     0.0092394975   0.079001047    6.398649       6.398649       6.398649       0              0              0              0.83976508   
     25800   1.0378425      0.83998428    -4.3804169     -0.98973538     1.4063639      1.3976919      1.4633566      1.3580432      0.19537597    -0.28906108    -0.15458347     6.3980924      6.3980924      6.3980924      0              0              0              0.83998428   
     25900   1.080995       0.83947118    -4.4529105     -2.0428576      0.60798148     0.72817387     0.64210543     0.45366514     0.083077739   -0.025680657   -0.083953172    6.3993957      6.3993957      6.3993957      0              0              0              0.83947118   
     26000   0.9544223      0.83948541    -4.2995186     -1.1880184      1.2874843      1.26492        1.4146843      1.1828488      0.062583178   -0.26255347     0.31796042     6.3993595      6.3993595      6.3993595      0              0              0              0.83948541   
     26100   1.010547       0.83958909    -4.4494899     -1.8184342      0.85700238     1.0760687      1.3413843      0.15355413    -0.15359477    -0.16427349    -0.067394975    6.3990961      6.3990961      6.3990961      0              0              0              0.83958909   
     26200   0.96908101     0.84070543    -4.4653283     -2.7282914      0.2221629     -0.0085967169   0.12152852     0.55355688    -0.24435599     0.1124477      0.26911052     6.3962625      6.3962625      6.3962625      0              0              0              0.84070543   
     26300   0.91725241     0.84246412    -4.4446995     -1.888622       0.90915533     1.2589347      0.53555185     0.93297943    -0.0094460475   0.075300663   -0.33913863     6.3918085      6.3918085      6.3918085      0              0              0              0.84246412   
     26400   0.92322718     0.84417887    -4.4814589     -2.8241809      0.21439185     0.23076861     0.085744525    0.32666242     0.57274856     0.49013433     0.025530134    6.3874778      6.3874778      6.3874778      0              0              0              0.84417887   
     26500   0.96381742     0.84712634    -4.5462513     -2.3450622      0.58736006     0.38505833     0.51698739     0.86003447     0.22268049     0.74116631     0.0092944571   6.380061       6.380061       6.380061       0              0              0              0.84712634   
     26600   0.90355846     0.8499393     -4.4373762     -2.0461341      0.80565053     1.1406168      0.74111765     0.53521716    -0.31087237    -0.39345083     0.16513081     6.3730147      6.3730147      6.3730147      0              0              0              0.8499393    
     26700   0.89991441     0.85206434    -4.3913809     -0.95060181     1.6248533      1.9750906      1.6649383      1.2345309      0.47667869     0.34297034     0.41641253     6.3677123      6.3677123      6.3677123      0              0              0              0.85206434   
     26800   1.0820599      0.85234731    -4.5734044     -2.0299305      0.71945828     0.81034072     0.97714551     0.37088861    -0.22990498    -0.2033312     -0.49036991     6.3670075      6.3670075      6.3670075      0              0              0              0.85234731   
     26900   1.0734148      0.85261269    -4.4577512     -1.4511502      1.0886541      0.8205072      0.59894374     1.8465114      0.24344498     0.49340078     0.034088496    6.3663468      6.3663468      6.3663468      0              0              0              0.85261269   
     27000   1.0894137      0.85156521    -4.4248905     -0.77261032     1.5686839      2.3145624      1.5550165      0.83647292     0.57609939     0.080581929    0.029611043    6.3689561      6.3689561      6.3689561      0              0              0              0.85156521   
     27100   1.0826302      0.84932823    -4.4031154     -1.4424967      1.038337       1.1841263      0.83426054     1.0966241     -0.10129238    -0.35196323    -0.11884524     6.3745428      6.3745428      6.3745428      0              0              0              0.84932823   
     27200   1.0785687      0.84755716    -4.4208328     -0.92252725     1.4551337      1.8939978      1.0070629      1.4643404     -0.14269606    -0.011028337    0.18882779     6.3789798      6.3789798      6.3789798      0              0              0              0.84755716   
     27300   1.0408327      0.84557399    -4.3973408     -1.0733589      1.3610198      1.8721646      1.284024       0.92687085     0.27362341     0.24438903    -0.79668414     6.3839629      6.3839629      6.3839629      0              0              0              0.84557399   
     27400   1.058442       0.84418448    -4.4663215     -2.0221394      0.66341957     0.70050633     0.12639835     1.163354       0.1312191      0.25967607    -0.3544214      6.3874636      6.3874636      6.3874636      0              0              0              0.84418448   
     27500   1.0288071      0.84391513    -4.4675541     -2.1436275      0.60488155     0.88388973     0.84729638     0.083458549   -0.056439604    0.020168205   -0.017363031    6.3881431      6.3881431      6.3881431      0              0              0              0.84391513   
     27600   0.95060717     0.84432064    -4.3899846     -1.6123471      1.0430094      0.68456426     0.46579126     1.9786727     -0.085754725   -0.25630827     0.2591634      6.3871202      6.3871202      6.3871202      0              0              0              0.84432064   
[...]
    136000   0.10614306     0.26895622    -2.4133022     -7.2701216     -1.226254      -3.228472      -0.18350029    -0.2667898     -0.051309594   -0.29885248    -0.041718049    23.156559      5.9433804      5.9433804      0              0              0              0.26895622   
    137000   0.10179872     0.26628006    -2.2990904     -7.4225927     -1.2770397     -3.4051084     -0.12641303    -0.2995977     -0.070631693   -0.30517716    -0.029376438    23.389286      5.9433804      5.9433804      0              0              0              0.26628006   
    138000   0.25552491     0.26363053    -2.7537826     -5.3202161     -0.70648293    -1.6900813     -0.19595909    -0.2334084     -0.065471977   -0.23174438    -0.005395644    23.624353      5.9433804      5.9433804      0              0              0              0.26363053   
    139000   0.10225198     0.26100736    -3.0126076     -5.8839172     -0.71751415    -1.660284      -0.22326236    -0.26899607    -0.024725819   -0.26855609    -0.010873076    23.861781      5.9433804      5.9433804      0              0              0              0.26100736   
    140000   0.10445271     0.2584103     -3.0748785     -5.6755023     -0.64755729    -1.5254278     -0.16237973    -0.25486439    -0.03033242    -0.20480464    -0.017742832    24.101596      5.9433804      5.9433804      0              0              0              0.2584103    
    141000   0.10802141     0.25583907    -3.0348437     -5.5598304     -0.62476102    -1.5522204     -0.19274485    -0.1293178     -0.049653966   -0.26644127    -0.03012998     24.343821      5.9433804      5.9433804      0              0              0              0.25583907   
    142000   0.097994098    0.25329343    -3.0238568     -5.6185861     -0.63115782    -1.6591746     -0.11426982    -0.12002904    -0.075284532   -0.21076855    -0.031261234    24.588481      5.9433804      5.9433804      0              0              0              0.25329343   
    143000   0.11139118     0.25077312    -2.994964      -5.6957421     -0.65361265    -1.5972997     -0.1728819     -0.19065632    -0.13169552    -0.254322       0.002901849    24.835599      5.9433804      5.9433804      0              0              0              0.25077312   
    144000   0.11894273     0.24827789    -3.0099689     -5.9104105     -0.69471846    -1.6092587     -0.20998575    -0.26491093    -0.068561449   -0.2803201     -0.04200715     25.085201      5.9433804      5.9433804      0              0              0              0.24827789   
    145000   0.096473116    0.24580748    -2.968523      -5.9254325     -0.69293032    -1.7351856     -0.097296438   -0.24630891    -0.083108321   -0.29608553    -0.0045134585   25.337311      5.9433804      5.9433804      0              0              0              0.24580748   
    146000   0.096092519    0.24336165    -2.9149874     -6.3052042     -0.78177384    -1.9060305     -0.12714288    -0.31214812    -0.080522352   -0.27971787    -0.03653336     25.591956      5.9433804      5.9433804      0              0              0              0.24336165   
    147000   0.10625645     0.24094016    -2.8089974     -6.6478246     -0.87557985    -2.1273824     -0.18310465    -0.31625248    -0.11603387    -0.30564824    -0.01407038     25.849159      5.9433804      5.9433804      0              0              0              0.24094016   
    148000   0.17225435     0.23854277    -3.0203441     -5.2390877     -0.53690191    -1.2107415     -0.13082604    -0.26913814    -0.030377739   -0.20894893     0.0057838646   26.108947      5.9433804      5.9433804      0              0              0              0.23854277   
    149000   0.097010559    0.23616923    -3.1926805     -4.8365967     -0.3840336     -0.9029955     -0.073655021   -0.1754503     -0.0021030948  -0.18030762    -0.033798174    26.371347      5.9433804      5.9433804      0              0              0              0.23616923   
    150000   0.087939851    0.23381931    -3.2355086     -4.8350591     -0.36790421    -0.93000802    -0.072983597   -0.10072103    -0.044845069   -0.16690234    -0.045746301    26.636383      5.9433804      5.9433804      0              0              0              0.23381931   
    151000   0.11211693     0.23149277    -3.1992674     -4.6866306     -0.34822778    -0.91813752    -0.029967443   -0.096578368   -0.087779335   -0.1422854     -0.049536127    26.904083      5.9433804      5.9433804      0              0              0              0.23149277   
    152000   0.10859931     0.22918937    -3.2475203     -4.9151734     -0.38123311    -1.0042577     -0.034633758   -0.10480787     0.042712512   -0.18758879    -0.0076892972   27.174474      5.9433804      5.9433804      0              0              0              0.22918937   
    153000   0.10284724     0.2269089     -3.2012162     -4.9345228     -0.3892119     -1.0428684     -0.02262978    -0.10213754    -0.053996991   -0.20093421    -0.010503107    27.447582      5.9433804      5.9433804      0              0              0              0.2269089    
    154000   0.089517413    0.22465112    -3.1312991     -5.6448572     -0.54062554    -1.2871055     -0.13885992    -0.19591126    -0.01886212    -0.22748068    -0.024247885    27.723435      5.9433804      5.9433804      0              0              0              0.22465112   
    155000   0.10258535     0.2224158     -3.0955109     -5.2122708     -0.45895877    -1.1786172     -0.075462456   -0.12279671    -0.022681013   -0.20806057    -0.038470963    28.00206       5.9433804      5.9433804      0              0              0              0.2224158    
    156000   0.10703173     0.22020273    -3.0408302     -5.7699397     -0.57830329    -1.4609094     -0.13735761    -0.13664282    -0.041805706   -0.27701727    -0.015330083    28.283485      5.9433804      5.9433804      0              0              0              0.22020273   
    157000   0.14092444     0.21801168    -3.3972647     -3.7559568     -0.11277582    -0.059395785   -0.12269594    -0.15623573    -0.0070423234   0.0064736683   0.011836412    28.567739      5.9433804      5.9433804      0              0              0              0.21801168   
    158000   0.097417326    0.21584242    -3.5579157     -3.5498483     -0.026946548    0.047688135   -0.019821668   -0.10870611     0.03088856    -0.0074359178  -0.017606863    28.854849      5.9433804      5.9433804      0              0              0              0.21584242   
    159000   0.10595198     0.21369476    -3.64767       -3.7283347     -0.046390815    0.04852037    -0.063425977   -0.12426684     0.0078793458   0.0015815628   0.035002453    29.144845      5.9433804      5.9433804      0              0              0              0.21369476   
    160000   0.10720233     0.21156846    -3.6690695     -3.9187784     -0.078801257   -0.10298153    -0.092166081   -0.041256154   -0.033033323    0.008529183   -0.025597062    29.437756      5.9433804      5.9433804      0              0              0              0.21156846   
    161000   0.094788528    0.20946332    -3.7608329     -3.6019728      0.0033110884   0.026348205   -0.024941163    0.0085262233  -0.022515436    0.0062814589   0.01527564     29.73361       5.9433804      5.9433804      0              0              0              0.20946332   
    162000   0.10730577     0.20737912    -3.791243      -3.9320017     -0.056729982   -0.0033429861  -0.064894635   -0.10195232    -0.013381058   -0.051437924   -0.036081656    30.032438      5.9433804      5.9433804      0              0              0              0.20737912   
    163000   0.10561007     0.20531566    -3.8247258     -3.8135998     -0.027343752    0.0061489469  -0.053219451   -0.034960753   -0.013322851    0.036240989   -0.0086898183   30.334269      5.9433804      5.9433804      0              0              0              0.20531566   
    164000   0.10415907     0.20327274    -3.8467175     -4.0930649     -0.074250887   -0.019734223   -0.073430239   -0.1295882     -0.024420507   -0.031599123    0.019069481    30.639134      5.9433804      5.9433804      0              0              0              0.20327274   
    165000   0.09597396     0.20125014    -3.8538023     -4.3961476     -0.12543125    -0.14232221    -0.087014665   -0.14695688     0.0011928218  -0.037655755   -0.00059727023  30.947062      5.9433804      5.9433804      0              0              0              0.20125014   
    166000   0.10028107     0.19924767    -3.9209036     -4.1171262     -0.062652895   -0.011246344   -0.045070693   -0.13164165     0.044873807   -0.00066763979  0.029492259    31.258085      5.9433804      5.9433804      0              0              0              0.19924767   
    167000   0.10366712     0.19726512    -3.9983066     -4.3024885     -0.082296327   -0.075839768   -0.020092007   -0.15095721     0.072311293    0.071276999    0.015460397    31.572234      5.9433804      5.9433804      0              0              0              0.19726512   
    168000   0.10265646     0.1953023     -4.1391459     -4.3179464     -0.058948502    0.056298143   -0.10479662    -0.12834703    -0.049576122    0.040593463   -0.052600278    31.88954       5.9433804      5.9433804      0              0              0              0.1953023    
    169000   0.10935386     0.19335901    -4.2330402     -4.6388153     -0.10001685     0.02036725    -0.097192009   -0.22322579     0.0078455068  -0.021287765   -0.014053756    32.210036      5.9433804      5.9433804      0              0              0              0.19335901   
    170000   0.093350227    0.19143506    -4.260529      -4.6701094     -0.095527074   -0.018029391   -0.064291435   -0.20426039     0.011597016   -0.0019974833  -0.0171456      32.533752      5.9433804      5.9433804      0              0              0              0.19143506   
    171000   0.10204477     0.18953025    -4.318592      -4.3718452     -0.035417182    0.045596683   -0.031804023   -0.1200442     -0.011565259    0.040844879    0.016615884    32.860721      5.9433804      5.9433804      0              0              0              0.18953025   
    172000   0.10587948     0.18764439    -4.3380568     -4.5073319     -0.055832779   -0.071680157   -0.039605476   -0.056212704    0.040561675   -0.010195706    0.02151206     33.190977      5.9433804      5.9433804      0              0              0              0.18764439   
    173000   0.10239818     0.1857773     -4.408096      -4.4317744     -0.029810109    0.06038898     0.0047698829  -0.15458919    -0.042797703    0.028409426   -0.014832504    33.524552      5.9433804      5.9433804      0              0              0              0.1857773    
    174000   0.10564256     0.18392878    -4.4143513     -4.9374482     -0.11382991    -0.069866282   -0.078057971   -0.19356547     0.016729446    0.023833583   -0.0064367162   33.861479      5.9433804      5.9433804      0              0              0              0.18392878   
    175000   0.093461111    0.18209866    -4.4789498     -4.652113      -0.051758044    0.044156733   -0.038638299   -0.16079257     0.015999338   -0.053394292    0.024017618    34.201793      5.9433804      5.9433804      0              0              0              0.18209866   
    176000   0.10994785     0.18028675    -4.4750769     -5.2809998     -0.15898342    -0.095949684   -0.11985401    -0.26114656     0.027491045   -0.012498888    0.037274965    34.545527      5.9433804      5.9433804      0              0              0              0.18028675   
    177000   0.096594121    0.17849286    -4.4810247     -4.5620182     -0.036535905    0.02842591    -0.052827241   -0.085206385    0.028497726   -0.025347569    0.025687913    34.892715      5.9433804      5.9433804      0              0              0              0.17849286   
    178000   0.11103787     0.17671683    -4.4806192     -4.9986244     -0.10984223    -0.032320802   -0.15592867    -0.14127723     0.002071783    0.014267705    0.043464717    35.243393      5.9433804      5.9433804      0              0              0              0.17671683   
    179000   0.10773757     0.17495847    -4.5132941     -4.7903972     -0.069649591    0.016928752   -0.087852103   -0.13802542     0.03225932    -0.037078957    0.046464954    35.597595      5.9433804      5.9433804      0              0              0              0.17495847   
    180000   0.099326751    0.1732176     -4.5379396     -4.5302283     -0.022129946    0.032761925   -0.029489607   -0.069662157   -0.031399792    0.05541889     0.054897144    35.955356      5.9433804      5.9433804      0              0              0              0.1732176    
    181000   0.096266964    0.17149406    -4.532555      -5.0698702     -0.10616942    -0.044021136   -0.15433002    -0.1201571      0.0092522122  -0.024240319    0.020724539    36.316714      5.9433804      5.9433804      0              0              0              0.17149406   
    182000   0.091712446    0.16978766    -4.5652757     -4.6842218     -0.039487519   -0.013842416   -0.035744705   -0.068875437   -0.025780285    0.051800977   -0.0097372404   36.681703      5.9433804      5.9433804      0              0              0              0.16978766   
    183000   0.090549453    0.16809825    -4.532451      -4.6586248     -0.039933862   -0.012499114   -0.067048539   -0.040253934   -0.027925621    0.0047105735  -0.0033721152   37.05036       5.9433804      5.9433804      0              0              0              0.16809825   
    184000   0.095402722    0.16642564    -4.5582105     -4.5601796     -0.021840749    0.025878401   -0.05894681    -0.032453837   -0.0092992037  -0.0087733348   0.020918685    37.422722      5.9433804      5.9433804      0              0              0              0.16642564   
    185000   0.10045683     0.16476968    -4.5679544     -4.6940753     -0.041350108    0.064343833   -0.10830647    -0.080087684   -0.003833861   -0.025160008    0.026431638    37.798827      5.9433804      5.9433804      0              0              0              0.16476968   
    186000   0.10454592     0.16313019    -4.5530302     -4.6678529     -0.040168205   -0.0019604435  -0.080895176   -0.037648995    0.020024571    0.036164393   -0.021683359    38.178711      5.9433804      5.9433804      0              0              0              0.16313019   
    187000   0.09306213     0.16150702    -4.5609888     -4.7104679     -0.04234044     0.005372837   -0.06792388    -0.064470276   -0.042771087   -0.0029691927   0.0031910505   38.562414      5.9433804      5.9433804      0              0              0              0.16150702   
    188000   0.096759357    0.1599        -4.5997611     -4.5825124     -0.018485119    0.036711991   -0.057405843   -0.034761505   -0.027076271    0.0053304065  -0.005769766    38.949973      5.9433804      5.9433804      0              0              0              0.1599       
    189000   0.10483577     0.15830897    -4.586775      -4.7914121     -0.051969165    0.021124996   -0.064503518   -0.11252897     0.011980843   -0.024588799    0.044758808    39.341426      5.9433804      5.9433804      0              0              0              0.15830897   
    190000   0.10055052     0.15673377    -4.6194266     -4.9042725     -0.061969338    0.022377529   -0.13325505    -0.075030494    0.015055609    0.022316858   -0.030593089    39.736814      5.9433804      5.9433804      0              0              0              0.15673377   
    191000   0.10879691     0.15517424    -4.6198212     -4.5743572     -0.016492966    0.080182227   -0.11082732    -0.018833807    0.025550899   -0.0055138973   0.051941893    40.136176      5.9433804      5.9433804      0              0              0              0.15517424   
    192000   0.10408155     0.15363023    -4.6436558     -4.5606599     -0.0101041      0.062646224   -0.072921133   -0.020037392   -0.005826146    0.021604756    0.019249254    40.539551      5.9433804      5.9433804      0              0              0              0.15363023   
    193000   0.097108592    0.15210159    -4.6298369     -4.8677524     -0.052938273    0.018007063   -0.12110311    -0.055718777    0.012929019   -0.0052354259   0.01040686     40.94698       5.9433804      5.9433804      0              0              0              0.15210159   
    194000   0.099389366    0.15058815    -4.617044      -5.2423009     -0.10590392    -0.052120563   -0.12131022    -0.14428099    -0.0026368772  -0.0088567429   0.018174586    41.358504      5.9433804      5.9433804      0              0              0              0.15058815   
    195000   0.10100063     0.14908977    -4.6453625     -5.1310946     -0.086265435   -0.017714661   -0.15005941    -0.091022236    0.013423321    0.010602763    0.026172937    41.774164      5.9433804      5.9433804      0              0              0              0.14908977   
    196000   0.10619605     0.1476063     -4.6483134     -4.9925109     -0.067455422   -0.024924076   -0.095313465   -0.082128723    0.0094885821   0.024004167    0.0073148688   42.194002      5.9433804      5.9433804      0              0              0              0.1476063    
    197000   0.10670394     0.1461376     -4.6263816     -5.2703482     -0.10670997    -0.082125407   -0.098883803   -0.1391207     -0.025570236   -0.070148671   -0.00095430749  42.618058      5.9433804      5.9433804      0              0              0              0.1461376    
    198000   0.097095087    0.1446835     -4.6271899     -5.0911722     -0.080088462   -0.022968481   -0.11613269    -0.10116422    -0.024910955   -0.018313124   -0.020851381    43.046377      5.9433804      5.9433804      0              0              0              0.1446835    
    199000   0.094718094    0.14324388    -4.6409123     -4.9212583     -0.05491616     0.013459098   -0.079795773   -0.098411805    0.01560702    -0.017532399    0.03036552     43.479         5.9433804      5.9433804      0              0              0              0.14324388   
    200000   0.098718336    0.14181858    -4.6328021     -4.7242234     -0.030782157    0.04753414    -0.068202709   -0.071677902   -0.0078086842  -0.033430813    0.055793634    43.915971      5.9433804      5.9433804      0              0              0              0.14181858   
Loop time of 23.2081 on 12 procs for 200000 steps with 200 atoms

Performance: 1489136.498 tau/day, 8617.688 timesteps/s
98.7% CPU use with 12 MPI tasks x 1 OpenMP threads

MPI task timing breakdown:
Section |  min time  |  avg time  |  max time  |%varavg| %total
---------------------------------------------------------------
Pair    | 0.49016    | 0.86395    | 1.4579     |  31.4 |  3.72
Bond    | 0.040049   | 0.058946   | 0.085099   |   6.0 |  0.25
Neigh   | 0.037686   | 0.038898   | 0.039973   |   0.4 |  0.17
Comm    | 5.1732     | 5.7244     | 6.1274     |  12.4 | 24.67
Output  | 0.021491   | 0.021635   | 0.022833   |   0.2 |  0.09
Modify  | 15.864     | 15.934     | 15.966     |   0.8 | 68.66
Other   |            | 0.5667     |            |       |  2.44

Nlocal:        16.6667 ave          35 max           1 min
Histogram: 3 2 0 0 1 0 1 3 1 1
Nghost:        394.833 ave         502 max         271 min
Histogram: 3 0 1 2 0 0 0 1 2 3
Neighs:        900.917 ave        2110 max          40 min
Histogram: 5 1 0 0 0 0 2 3 0 1

Total # of neighbors = 10811
Ave neighs/atom = 54.055
Ave special neighs/atom = 9.48
Neighbor list builds = 496
Dangerous builds = 0
System init for write_data ...
Generated 0 of 1 mixed pair_coeff terms from geometric mixing rule
WARNING: Not all mixed pair coeffs generated from mixing. Use write_data with 'pair ij' option to store all pair coeffs. (src/write_data.cpp:309)
Total wall time: 0:00:23
