LAMMPS (23 Jun 2022)
OMP_NUM_THREADS environment is not set. Defaulting to 1 thread. (src/comm.cpp:98)
  using 1 OpenMP thread(s) per MPI task
Reading data file ...
  orthogonal box = (96.933731 96.933731 96.933731) to (103.06627 103.06627 103.06627)
  2 by 2 by 3 MPI processor grid
  reading atoms ...
  200 atoms
  scanning bonds ...
  4 = max bonds/atom
  reading bonds ...
  225 bonds
Finding 1-2 1-3 1-4 neighbors ...
  special bond factors lj:    0        0        0       
  special bond factors coul:  0        0        0       
     4 = max # of 1-2 neighbors
     4 = max # of 1-3 neighbors
    10 = max # of 1-4 neighbors
    12 = max # of special neighbors
  special bonds CPU = 0.001 seconds
  read_data CPU = 0.006 seconds
Finding 1-2 1-3 1-4 neighbors ...
  special bond factors lj:    0        1        1       
  special bond factors coul:  0        0        0       
     4 = max # of 1-2 neighbors
     4 = max # of 1-3 neighbors
    10 = max # of 1-4 neighbors
    12 = max # of special neighbors
  special bonds CPU = 0.000 seconds
Generated 0 of 1 mixed pair_coeff terms from geometric mixing rule
Neighbor list info ...
  update every 1 steps, delay 0 steps, check yes
  max neighbors/atom: 2000, page size: 100000
  master list distance cutoff = 5.5
  ghost atom cutoff = 5.5
  binsize = 2.75, bins = 3 3 3
  1 neighbor lists, perpetual/occasional/extra = 1 0 0
  (1) pair lj/cut, perpetual
      attributes: half, newton on
      pair build: half/bin/newton
      stencil: half/bin/3d
      bin: standard
WARNING: Proc sub-domain size < neighbor skin, could lead to lost atoms (src/domain.cpp:970)
Setting up Verlet run ...
  Unit style    : lj
  Current step  : 0
  Time step     : 0.002
WARNING: Inconsistent image flags (src/domain.cpp:819)
Per MPI rank memory allocation (min/avg/max) = 8.435 | 8.436 | 8.44 Mbytes
   Step          Temp         Density         PotEng        Enthalpy        Press           Pxx            Pyy            Pzz            Pxy            Pxz            Pyz             Lx             Ly             Lz             Xy             Yz             Xz          Density    
         0   1.5            0.95389759    -4.1366952      1.4931244      2.9406665      2.5776824      2.7493461      3.494971       0.56095258     0.11181673     0.40260438     6.1325389      6.1325389      6.1325389      0              0              0              0.95389759   
      1000   1.3649466      0.79699807    -2.8323689      1.4115524      1.5988785      1.3636582      1.4707425      1.9622347     -0.3432707     -0.099667849   -0.63390003     6.5111116      6.5111116      6.5111116      0              0              0              0.79699807   
      2000   1.4729974      0.77916025    -2.7022041      1.1553406      1.1751833      1.2627841      0.96283175     1.2999342      0.059249148   -0.33988781     0.14445467     6.5604248      6.5604248      6.5604248      0              0              0              0.77916025   
      3000   1.5280019      0.82110736    -2.9422205      1.8246621      1.8559562      1.9289655      2.0906937      1.5482093     -0.043269931   -0.089248706    0.40268042     6.4467512      6.4467512      6.4467512      0              0              0              0.82110736   
      4000   1.4613675      0.8250043     -2.8316217      1.3708537      1.5160462      1.7561799      1.4727531      1.3192056      0.45634634     0.16154002    -0.080262334    6.4365847      6.4365847      6.4365847      0              0              0              0.8250043    
      5000   1.4095464      0.7909216     -2.9559777     -0.26728804     0.42058449     1.1048901     -0.23062243     0.38748579    -0.27670797     0.43874495    -0.28594872     6.5277435      6.5277435      6.5277435      0              0              0              0.7909216    
      6000   1.4659809      0.80984322    -2.9057441      0.70379627     1.0465853      1.0242096      1.6063646      0.5091816      0.26181807     0.1391709     -0.36841665     6.4765031      6.4765031      6.4765031      0              0              0              0.80984322   
      7000   1.3148756      0.83853154    -3.0007957      0.44115195     1.1278217      1.3996687      0.53163268     1.4521638      0.28480867    -0.56975826    -0.2072137      6.4017851      6.4017851      6.4017851      0              0              0              0.83853154   
      8000   1.3333939      0.79003047    -2.8843162      0.055764659    0.6822922      0.51299508     1.4904468      0.043434691    0.32845568    -0.12454908     0.033727129    6.530197       6.530197       6.530197       0              0              0              0.79003047   
      9000   1.5056065      0.81633213    -3.0489697      0.26372644     0.79078722     1.1754773      0.45795513     0.73892923     0.0084475505  -0.92257429    -0.29038727     6.4592971      6.4592971      6.4592971      0              0              0              0.81633213   
     10000   1.4512745      0.83053084    -2.8182527      2.9547167      2.7233425      2.6317936      2.9623094      2.5759245      0.5838911     -0.25575647    -0.56188934     6.4222761      6.4222761      6.4222761      0              0              0              0.83053084   
     11000   1.3951833      0.7811891     -2.879359       0.59837145     0.99098761     1.4473213      1.0281969      0.49744466     0.12409057     0.31278349     0.049221377    6.5547405      6.5547405      6.5547405      0              0              0              0.7811891    
     12000   1.49122        0.83454898    -3.25302        0.91743641     1.4754906      1.6688982      0.73066301     2.0269107     -0.29714596     0.22243241    -0.36742356     6.4119523      6.4119523      6.4119523      0              0              0              0.83454898   
     13000   1.4158939      0.83315477    -3.2097526      0.4440135      1.1668291      0.53419305     1.2871771      1.6791171     -0.88832628     0.22026564    -0.30039555     6.4155269      6.4155269      6.4155269      0              0              0              0.83315477   
     14000   1.3244407      0.78456461    -2.9039582      0.2477039      0.83801077     0.75851839     1.4175087      0.33800516    -0.52375159     0.060491398   -0.42576029     6.5453266      6.5453266      6.5453266      0              0              0              0.78456461   
     15000   1.442381       0.82440271    -2.8626422      1.0815648      1.3426173      1.4194475      2.1742267      0.43417778    -0.39391707     0.15140652     0.40631862     6.43815        6.43815        6.43815        0              0              0              0.82440271   
     16000   1.3469273      0.82486401    -3.2028653     -0.36768586     0.61856582     0.6328096      0.43164726     0.79124059    -0.54068728     0.17885298    -0.37552741     6.4369496      6.4369496      6.4369496      0              0              0              0.82486401   
     17000   1.2380964      0.8228974     -2.9336397      1.2641738      1.7579742      1.2964984      1.6225899      2.3548341      0.40612399     0.30376619     0.18916936     6.4420733      6.4420733      6.4420733      0              0              0              0.8228974    
     18000   1.3072517      0.82407876    -3.2628808     -0.40474821     0.67953486     0.53029312     0.56260706     0.94570439     0.47274903    -0.050676242    0.14198309     6.4389935      6.4389935      6.4389935      0              0              0              0.82407876   
     19000   1.1441997      0.84032999    -3.2526497     -0.97046861     0.43885322     0.32122386     0.47919836     0.51613744    -0.25710197     0.25176251    -0.12648357     6.3972149      6.3972149      6.3972149      0              0              0              0.84032999   
     20000   1.292366       0.8259643     -3.1583279      0.12815497     1.0194101      0.5212953      1.8566136      0.68032128    -0.15088029    -0.53223323     0.57066864     6.4340901      6.4340901      6.4340901      0              0              0              0.8259643    
     21000   1.3480926      0.83390167    -3.2527039     -0.74675908     0.37443441     0.40173223     0.63146964     0.090101369   -0.25568928    -0.20938004    -0.61643636     6.413611       6.413611       6.413611       0              0              0              0.83390167   
     22000   1.1924382      0.8541115     -3.4320328     -1.0285851      0.48430744     1.256428       0.23982667    -0.043332318    0.44986311     0.45100648     0.1016368      6.3626207      6.3626207      6.3626207      0              0              0              0.8541115    
     23000   1.2201174      0.83337195    -3.2518675     -0.98442758     0.33820864     0.99483581    -0.48111715     0.50090727    -0.57603933    -0.18871629    -0.034843502    6.4149696      6.4149696      6.4149696      0              0              0              0.83337195   
     24000   1.2702524      0.82448249    -3.1696703      0.075440799    1.0113097      0.41780403     1.2060382      1.410087       0.50122045    -0.20306841     0.10444179     6.4379423      6.4379423      6.4379423      0              0              0              0.82448249   
     25000   1.2803641      0.84651749    -3.1659477      1.2401993      1.9202123      1.9443134      1.8097192      2.0066044      0.20291586    -0.163561       0.051272747    6.3815902      6.3815902      6.3815902      0              0              0              0.84651749   
     26000   1.4377689      0.82738584    -3.356524       0.10341162     0.98839929     1.3533514      0.73137083     0.88047566     0.6426568      0.11850529    -0.074374055    6.4304031      6.4304031      6.4304031      0              0              0              0.82738584   
     27000   1.175068       0.84142643    -3.2396926     -0.71196398     0.59201205     0.85250556    -0.037947372    0.96147795     0.55293707     0.6704867     -0.28144777     6.394435       6.394435       6.394435       0              0              0              0.84142643   
     28000   1.1617266      0.86472253    -3.3249257      0.97606        2.0180334      2.0589563      2.9344679      1.0606761      0.2771565     -0.62255351     0.41467937     6.3364883      6.3364883      6.3364883      0              0              0              0.86472253   
     29000   1.1766975      0.83533437    -3.3092462     -1.0241752      0.40160591     0.094846525    0.6424411      0.46753009    -0.48740689    -0.064330317   -0.66514857     6.4099422      6.4099422      6.4099422      0              0              0              0.83533437   
     30000   1.1543337      0.84548385    -3.3111957     -0.20762581     1.0612566      0.52430353     1.8310692      0.82839702     0.23608112    -0.033433918    0.091544251    6.3841898      6.3841898      6.3841898      0              0              0              0.84548385   
     31000   1.2739204      0.84463275    -3.3859262      0.054924013    1.1821204      0.81856507     1.479286       1.2485101      0.16795945     0.24751409     0.49191267     6.3863334      6.3863334      6.3863334      0              0              0              0.84463275   
     32000   1.2900362      0.87477059    -3.4513846      0.86392234     1.9005806      1.3291239      2.8262095      1.5464083     -0.97810937    -0.17512249    -0.33721955     6.3121334      6.3121334      6.3121334      0              0              0              0.87477059   
     33000   1.2659385      0.85881932    -3.5673357     -0.29160436     1.0823607      1.7589052      0.88508006     0.60309698     0.43392233     0.067003521   -0.43352455     6.3509734      6.3509734      6.3509734      0              0              0              0.85881932   
     34000   1.2168664      0.88738878    -3.7159819     -0.043433881    1.4975694      0.98812983     2.0222407      1.4823377      0.21578073    -0.19403666    -0.24932156     6.2820721      6.2820721      6.2820721      0              0              0              0.88738878   
     35000   1.223281       0.82630746    -3.2394229     -1.4260369     -0.0092852925  -0.61685968     0.31332468     0.27567912     0.22913825     0.23265898    -0.29525773     6.4331993      6.4331993      6.4331993      0              0              0              0.82630746   
     36000   1.0847508      0.85231817    -3.4153388     -0.76481776     0.79926564     0.75329825     1.3603732      0.28412547    -0.53343916     0.078806564   -0.46622284     6.3670801      6.3670801      6.3670801      0              0              0              0.85231817   
     37000   1.2233052      0.87639793    -3.5889573     -0.36585994     1.1132759      0.21203738     0.43561428     2.692176       0.33530239     0.35390734    -0.08607277     6.3082241      6.3082241      6.3082241      0              0              0              0.87639793   
     38000   1.1356542      0.88570255    -3.6412138     -0.36868221     1.2702325      0.87410409     1.3478701      1.5887232      0.20558803    -0.19712227     0.17273144     6.2860562      6.2860562      6.2860562      0              0              0              0.88570255   
     39000   1.00436        0.85787026    -3.5955342     -1.5917145      0.39369415    -0.75374485     0.85778108     1.0770462     -0.16862206     0.031670248   -0.80109869     6.3533145      6.3533145      6.3533145      0              0              0              0.85787026   
     40000   1.0675394      0.87287962    -3.7203596     -0.37656697     1.3890611      0.5416537      1.8011864      1.824343      -0.10789422    -0.47984613    -0.48902014     6.3166882      6.3166882      6.3166882      0              0              0              0.87287962   
     41000   1.0845923      0.88601       -3.64994       -0.78458284     1.0040935      0.8702214      1.6409844      0.50107461     0.83686542     0.24038496    -0.052467771    6.2853291      6.2853291      6.2853291      0              0              0              0.88601      
     42000   1.2241543      0.87415416    -3.7840759     -2.0332514     -0.060575661   -1.3110998      0.48287182     0.64650101     0.36203658    -0.049460955    0.24839733     6.3136168      6.3136168      6.3136168      0              0              0              0.87415416   
     43000   1.0223013      0.85560463    -3.5661476     -1.5166896      0.40732487     0.16244412     1.0411923      0.018338141   -0.044121665    0.22783736    -0.0034431144   6.3589174      6.3589174      6.3589174      0              0              0              0.85560463   
     44000   1.0576239      0.89496909    -3.7994417      0.068691503    1.8628616      1.8079663      2.6234756      1.1571428     -0.28671873    -0.83457506     0.18904063     6.2642856      6.2642856      6.2642856      0              0              0              0.89496909   
     45000   0.97677812     0.88638749    -3.7181891     -0.85710481     1.1307428     -0.096987199    1.944641       1.5445745      0.33495731    -0.57282036     0.04466868     6.2844367      6.2844367      6.2844367      0              0              0              0.88638749   
     46000   1.1437213      0.89602368    -3.7475672     -1.1332311      0.73908277     1.16445        0.29079138     0.7620069     -0.9233559     -0.5597635     -0.25245243     6.261827       6.261827       6.261827       0              0              0              0.89602368   
     47000   1.0720141      0.88970503    -3.7771293     -0.70102786     1.1939197      0.91541782     2.0395802      0.62676112     0.091282458    0.056491496    0.28466154     6.2766158      6.2766158      6.2766158      0              0              0              0.88970503   
     48000   0.9494928      0.89148079    -3.8496044     -1.5004576      0.75535069     1.2843179      1.0317225     -0.049988281    0.38700439    -0.5311929      0.32879532     6.2724455      6.2724455      6.2724455      0              0              0              0.89148079   
     49000   0.91565903     0.86828358    -3.7154359     -2.6012436     -0.19925434     0.41520906    -0.84944841    -0.16352367     0.13095716    -0.16700512    -0.43940683     6.3278139      6.3278139      6.3278139      0              0              0              0.86828358   
     50000   1.0258812      0.895729      -3.940268      -1.6102162      0.65056313     1.0097835      0.24865744     0.69324849    -1.0765195     -0.3037949     -0.45751393     6.2625136      6.2625136      6.2625136      0              0              0              0.895729     
     51000   1.0464699      0.89414897    -3.8359409     -2.0391268      0.19098842     0.49851428    -0.15958311     0.23403408     0.34341511     0.011111219   -0.65156903     6.2662002      6.2662002      6.2662002      0              0              0              0.89414897   
     52000   1.0122519      0.88033662    -3.8784036     -1.5772137      0.63256507     1.3126545      0.12913153     0.45590913     0.55376842    -0.1927421     -0.44781808     6.2988022      6.2988022      6.2988022      0              0              0              0.88033662   
     53000   1.0005366      0.88476885    -3.8551929     -1.4771364      0.71164023     0.3770696      0.93848115     0.81936994     0.052734476    0.18715871    -0.64148478     6.2882667      6.2882667      6.2882667      0              0              0              0.88476885   
     54000   0.8191638      0.9059866     -3.9783781     -2.178777       0.47523051     0.47626589     0.090988116    0.85843754     0.46907229     0.36636849    -0.59315639     6.2387891      6.2387891      6.2387891      0              0              0              0.9059866    
     55000   0.9321955      0.89949803    -3.8840722     -1.0899317      1.147137       0.71311843     1.4360654      1.2922273     -0.13130423     0.41767595    -0.1910909      6.2537544      6.2537544      6.2537544      0              0              0              0.89949803   
     56000   0.98645656     0.89676876    -4.0523067     -1.508044       0.87392253     0.21525037     0.45586575     1.9506515     -0.042861829    0.17999571     0.49173477     6.2600923      6.2600923      6.2600923      0              0              0              0.89676876   
     57000   0.863989       0.90033691    -3.9425622     -0.92014715     1.4183674      2.1603086      0.090910257    2.0038834     -0.70934091    -0.17750848     0.1762005      6.2518115      6.2518115      6.2518115      0              0              0              0.90033691   
     58000   0.94507453     0.89625967    -3.8911136     -1.3212088      0.94464226     0.54669489     0.33336015     1.9538717     -0.39345678    -0.15433221    -0.77066099     6.2612773      6.2612773      6.2612773      0              0              0              0.89625967   
     59000   0.95724066     0.92545942    -4.1254035     -1.4663176      1.035172       0.49367471     1.4430256      1.1688157      0.31504391    -0.42371769    -0.010896495    6.1947212      6.1947212      6.1947212      0              0              0              0.92545942   
     60000   0.92845973     0.89504347    -4.0321261     -2.1326919      0.41799191    -0.045241193    0.97330328     0.32591365     0.4211505     -0.54560453     0.39823361     6.2641121      6.2641121      6.2641121      0              0              0              0.89504347   
     61000   0.91486872     0.93208591    -4.2981307     -1.4470142      1.2588879      1.1062322      1.5693425      1.1010891      0.3582465     -0.6549051      0.016643869    6.1800062      6.1800062      6.1800062      0              0              0              0.93208591   
     62000   0.88155612     0.90865092    -4.1124992     -1.9700365      0.6829257      0.67468513     0.21465205     1.1594399     -0.56403389     0.1518965     -0.53859359     6.2326854      6.2326854      6.2326854      0              0              0              0.90865092   
     63000   0.77604282     0.91204329    -4.1820252     -2.1723274      0.70596617     0.93278199     0.41118774     0.77392878     0.56406276     0.33403796    -0.37485783     6.2249482      6.2249482      6.2249482      0              0              0              0.91204329   
     64000   0.85902485     0.91552454    -4.2689328     -2.2680214      0.5982677      0.50615822     1.0636454      0.22499947    -0.17595416     0.060687375    0.46509318     6.2170481      6.2170481      6.2170481      0              0              0              0.91552454   
     65000   0.9492073      0.92458442    -4.1757021     -1.0718218      1.4181346      0.69286617     1.33433        2.2272078     -0.12256503     0.11902857     0.089407862    6.1966748      6.1966748      6.1966748      0              0              0              0.92458442   
     66000   0.94490819     0.9235367     -4.3162401     -2.1648506      0.62222361     0.88369403     0.11175448     0.87122232    -0.060771035   -0.35914198    -0.017099592    6.1990172      6.1990172      6.1990172      0              0              0              0.9235367    
     67000   0.78119315     0.93593045    -4.3332942     -2.2218643      0.80447404     0.77159388     1.1597721      0.48205609     0.14014463    -0.097994442    0.065261129    6.1715327      6.1715327      6.1715327      0              0              0              0.93593045   
     68000   0.83195091     0.90986398    -4.2270258     -2.5135698      0.39022347    -0.04361546     1.0941095      0.12017638    -0.32041675    -0.23545704     0.47766082     6.2299143      6.2299143      6.2299143      0              0              0              0.90986398   
     69000   0.93729117     0.95114051    -4.308942      -0.37924621     2.1883051      1.846111       2.0147513      2.7040531     -0.072926513   -0.047617928    0.34374176     6.1384586      6.1384586      6.1384586      0              0              0              0.95114051   
     70000   0.80955549     0.91809504    -4.2074349     -2.5143595      0.40464101     0.11540348     0.60149925     0.4970203     -0.2184608     -0.29343166     0.21264047     6.2112405      6.2112405      6.2112405      0              0              0              0.91809504   
     71000   0.8452977      0.93016891    -4.405762      -2.1918288      0.80529493     1.6118991      0.66784374     0.13614192     0.10169088     0.36706333    -0.085712746    6.1842488      6.1842488      6.1842488      0              0              0              0.93016891   
     72000   0.79874752     0.93033226    -4.1697881     -1.5897702      1.1738148      1.6606619      1.595174       0.2656086     -0.76829582    -0.39801476    -0.095948442    6.1838868      6.1838868      6.1838868      0              0              0              0.93033226   
     73000   0.74889278     0.94182288    -4.316653      -1.8522274      1.1530508      1.5179842      1.3458401      0.59532803    -0.21719012     0.58321463     0.66082862     6.1586352      6.1586352      6.1586352      0              0              0              0.94182288   
     74000   0.73509161     0.95646051    -4.4031033     -1.8191173      1.2928405      1.573709       1.5396627      0.76514986     0.021186485   -0.1277386     -0.29074643     6.1270564      6.1270564      6.1270564      0              0              0              0.95646051   
     75000   0.79797653     0.91154791    -4.2928183     -2.2503525      0.70560917    -0.031379806    0.94935169     1.1988556     -0.19513839     0.22150192    -0.44365194     6.2260757      6.2260757      6.2260757      0              0              0              0.91154791   
     76000   0.77769995     0.97033836    -4.5432111     -0.82243558     2.2582935      2.3437845      2.7735755      1.6575205     -0.76829037    -0.46931045     0.21257459     6.0977062      6.0977062      6.0977062      0              0              0              0.97033836   
     77000   0.71878321     0.92693685    -4.3139221     -2.3344709      0.76402123     0.8041871      1.744446      -0.25656941     0.038883267    0.23367641     0.068755975    6.1914283      6.1914283      6.1914283      0              0              0              0.92693685   
     78000   0.73623525     0.95927106    -4.5222992     -2.4699939      0.83149115     1.7012365      0.09842388     0.69481311    -0.12982613    -0.35434503    -0.37592172     6.1210667      6.1210667      6.1210667      0              0              0              0.95927106   
     79000   0.68969741     0.9479774     -4.5651487     -2.2159397      1.1374312      0.94373142     1.2253912      1.2431711      0.010526645   -0.19139636    -0.1805757      6.1452784      6.1452784      6.1452784      0              0              0              0.9479774    
     80000   0.69720428     0.95440285    -4.5659902     -2.1117403      1.2265573      1.1683968      1.2892739      1.2220012      0.064691533    0.48344972     0.13698963     6.1314565      6.1314565      6.1314565      0              0              0              0.95440285   
     81000   0.65629496     0.95699102    -4.6668403     -2.5910712      0.95372764     1.5224552      0.49045956     0.84826814     0.067177879    0.020866031   -0.31539348     6.125924       6.125924       6.125924       0              0              0              0.95699102   
     82000   0.63604868     0.95581696    -4.6191763     -2.3684753      1.1308169      1.9080438      0.70825469     0.77615225    -0.087854851   -0.22392571    -0.36019334     6.1284312      6.1284312      6.1284312      0              0              0              0.95581696   
     83000   0.70463216     0.96404318    -4.6271953     -2.4090802      1.0222816      1.1827837      1.1002769      0.783784      -0.035667179   -0.092959515   -0.42400655     6.11095        6.11095        6.11095        0              0              0              0.96404318   
     84000   0.6828203      0.9545128     -4.5398983     -2.642023       0.76253946     0.93765573     0.86690809     0.48305457    -0.16645027     0.16382788     0.2599312      6.1312211      6.1312211      6.1312211      0              0              0              0.9545128    
     85000   0.68631649     0.95810024    -4.7609468     -3.4197717      0.27597449     0.4924844      0.13233244     0.20310664     0.31143593    -0.41166898     0.39098394     6.1235591      6.1235591      6.1235591      0              0              0              0.95810024   
     86000   0.62519645     0.97406556    -4.8435211     -2.5946318      1.165145       1.1917415      1.3374497      0.96624373    -0.0034126306   0.47095623    -0.00073791574  6.0899187      6.0899187      6.0899187      0              0              0              0.97406556   
     87000   0.66059783     0.97474985    -4.7961667     -2.7865995      0.90707118     0.61552552     1.3418439      0.76384411     0.41236806    -0.29814752     0.12213035     6.0884933      6.0884933      6.0884933      0              0              0              0.97474985   
     88000   0.67524248     0.98079821    -4.7732176     -2.3540215      1.2584503      1.1638049      0.98207738     1.6294687      0.37828831    -0.18179194     0.11305281     6.0759521      6.0759521      6.0759521      0              0              0              0.98079821   
     89000   0.63292354     0.97608406    -4.8471701     -3.2004755      0.62296895     0.52062216     1.0989724      0.24931227     0.61369387    -0.05843016    -0.11097133     6.0857179      6.0857179      6.0857179      0              0              0              0.97608406   
     90000   0.57516951     0.95276565    -4.7677831     -3.833452       0.06573268     0.23597618    -0.2780817      0.23930357    -0.17231583    -0.13595505    -0.20634608     6.1349665      6.1349665      6.1349665      0              0              0              0.95276565   
     91000   0.58959606     0.98519275    -4.8975425     -2.6390671      1.2346286      1.7119552      1.5091374      0.48279336     0.1348812     -0.37221165     0.58467925     6.0669045      6.0669045      6.0669045      0              0              0              0.98519275   
     92000   0.61179912     0.97837617    -4.8498379     -3.5166106      0.37366601     0.51608826     0.44306449     0.16184527     0.40521927    -0.78417123     0.045809547    6.0809617      6.0809617      6.0809617      0              0              0              0.97837617   
     93000   0.56313126     0.98575011    -4.8465783     -3.1667766      0.75215273     1.1756929      0.67547017     0.4052951      0.52924366    -0.84052751    -0.12360337     6.0657608      6.0657608      6.0657608      0              0              0              0.98575011   
     94000   0.52701749     0.99332826    -4.9395483     -2.2402146      1.7272715      1.7532168      1.4457573      1.9828404      0.45208359    -0.095352142    0.4581742      6.0502961      6.0502961      6.0502961      0              0              0              0.99332826   
     95000   0.56306366     0.97298055    -4.9233131     -3.8792147      0.18020125     0.21875026    -0.036597776    0.35845127    -0.44098888    -0.16398961    -0.16738735     6.0921816      6.0921816      6.0921816      0              0              0              0.97298055   
     96000   0.51987694     0.99586767    -4.964381      -2.9458222      1.1250069      1.6044797      1.0633267      0.70721416     0.21396374     0.070008285   -0.30249301     6.0451491      6.0451491      6.0451491      0              0              0              0.99586767   
     97000   0.51449595     0.98726057    -5.0113851     -3.5977898      0.57953105     0.91314168     0.39696833     0.42848313     0.26111578    -0.44905864     0.17546045     6.0626658      6.0626658      6.0626658      0              0              0              0.98726057   
     98000   0.51243518     0.99058934    -5.0220822     -2.8600107      1.2582844      1.1316873      1.156278       1.4868881     -0.0019973006  -0.50080453    -0.31250651     6.0558672      6.0558672      6.0558672      0              0              0              0.99058934   
     99000   0.54710268     0.99110029    -4.9768915     -3.075424       0.97751023     0.74385868     0.88592242     1.3027496      0.40844176    -0.34270233     0.58074978     6.0548264      6.0548264      6.0548264      0              0              0              0.99110029   
    100000   0.53611515     1.0083652     -5.0622335     -2.4763912      1.6369346      1.4223172      1.5971031      1.8913835     -0.054865514   -0.62342559     0.22597515     6.020071       6.020071       6.020071       0              0              0              1.0083652    
    101000   0.50840759     0.99342836    -5.0712957     -3.5188798      0.71672934     1.038049       0.71693306     0.39520599    -0.4313793     -0.55665544     0.34086606     6.0500929      6.0500929      6.0500929      0              0              0              0.99342836   
    102000   0.45701119     0.99086586    -5.0412672     -3.4012699      0.86287131     1.0877445      0.57180756     0.92906185     0.33907004    -0.70960066     0.13663207     6.0553038      6.0553038      6.0553038      0              0              0              0.99086586   
    103000   0.46418706     0.98901522    -5.036595      -3.4085389      0.84089396     1.4292783      1.0009597      0.092443875    0.22947489    -0.32878188     0.06807967     6.0590784      6.0590784      6.0590784      0              0              0              0.98901522   
    104000   0.49126736     1.0078781     -5.1566392     -3.0864071      1.2250442      1.7397148      1.0908369      0.84458085     0.052036832   -0.42483086     0.18345488     6.0210407      6.0210407      6.0210407      0              0              0              1.0078781    
    105000   0.42626324     0.99528504    -5.0248825     -3.2012234      1.0744204      1.8105135      0.62864208     0.78410572    -0.046030985   -0.56312221     0.16503186     6.0463284      6.0463284      6.0463284      0              0              0              0.99528504   
    106000   0.41157291     1.007268      -5.1483445     -3.4031531      1.0355803      0.98843056     0.85284295     1.2654674     -0.011036104   -0.6258392      0.23861653     6.022256       6.022256       6.022256       0              0              0              1.007268     
    107000   0.44617105     1.0013397     -5.1199974     -3.1388918      1.1972339      1.7838246      1.0815924      0.72628471     0.50106806    -0.074083087    0.034901067    6.0341173      6.0341173      6.0341173      0              0              0              1.0013397    
    108000   0.37574021     1.0028331     -5.1017562     -3.1276441      1.2884763      1.1528029      1.3685481      1.3440778      0.084574471    0.026772181    0.0099345599   6.0311206      6.0311206      6.0311206      0              0              0              1.0028331    
    109000   0.37603785     1.0143484     -5.2433658     -3.4178245      1.1658595      0.92365223     1.5596876      1.0142387      0.29199097    -0.68394158     0.1271626      6.0082111      6.0082111      6.0082111      0              0              0              1.0143484    
    110000   0.39803248     1.010799      -5.1883008     -3.5378489      0.97072401     0.99531941     0.74308786     1.1737648      0.39340662    -0.1527693     -0.2630728      6.0152354      6.0152354      6.0152354      0              0              0              1.010799     
    111000   0.37496481     1.0164409     -5.1601007     -3.2171627      1.2782233      0.86089185     1.7112023      1.2625758      0.24933858    -0.86893766    -0.16349306     6.0040853      6.0040853      6.0040853      0              0              0              1.0164409    
    112000   0.33980376     1.0132511     -5.2094674     -3.4684096      1.136592       1.2092851      0.7730413      1.4274496      0.58707018    -0.17127038    -0.11796606     6.0103792      6.0103792      6.0103792      0              0              0              1.0132511    
    113000   0.348169       1.0226752     -5.296068      -3.204712       1.4612296      0.73307131     1.9038466      1.7467709      0.37910674    -1.0576018      0.022984095    5.99186        5.99186        5.99186        0              0              0              1.0226752    
    114000   0.37008778     1.0131711     -5.3170811     -4.0563361      0.65247201     0.31268632     0.99835319     0.64637652    -0.18871047    -0.33736876    -0.35762929     6.0105374      6.0105374      6.0105374      0              0              0              1.0131711    
    115000   0.36836709     1.0202484     -5.2793937     -3.2606615      1.3624438      0.82098289     1.6524901      1.6138584      0.34901639    -0.66801808    -0.089282903    5.9966069      5.9966069      5.9966069      0              0              0              1.0202484    
    116000   0.32945444     1.0259727     -5.3016195     -3.3658852      1.3468443      0.73363372     1.5663531      1.7405461      0.0020140632  -0.66963201     0.063612773    5.9854337      5.9854337      5.9854337      0              0              0              1.0259727    
    117000   0.32249839     1.0183961     -5.3548064     -3.9547034      0.85061456     0.6675376      0.80107783     1.0832282      0.10747767    -0.67407517     0.058268261    6.0002405      6.0002405      6.0002405      0              0              0              1.0183961    
    118000   0.31128562     1.0186285     -5.3812695     -4.1891542      0.67370375     0.71144233     0.37849832     0.9311706      0.26076712    -0.38520016    -0.064962741    5.999784       5.999784       5.999784       0              0              0              1.0186285    
    119000   0.31893604     1.0260908     -5.3613297     -3.9148076      0.90530122     0.61538099     1.0387243      1.0617984      0.41284474    -0.3831643     -0.019138311    5.9852041      5.9852041      5.9852041      0              0              0              1.0260908    
    120000   0.30834185     1.0232054     -5.3490284     -3.5372899      1.257183       1.1346102      1.1944138      1.442525       0.19283462    -0.69732089    -0.20720655     5.9908247      5.9908247      5.9908247      0              0              0              1.0232054    
    121000   0.28556867     1.0297332     -5.3802979     -3.4595893      1.3990305      1.5814764      1.281811       1.3338041      0.21323029    -0.2227568     -0.29901597     5.9781386      5.9781386      5.9781386      0              0              0              1.0297332    
    122000   0.26736516     1.0296167     -5.4259823     -4.0115619      0.95040908     0.64208062     1.0121218      1.1970248     -0.056902349   -0.22514637    -0.19167454     5.9783642      5.9783642      5.9783642      0              0              0              1.0296167    
    123000   0.28230478     1.0138095     -5.3968986     -4.6185126      0.32906975     0.4474807      0.20290031     0.33682825     0.33468471    -0.35463827     0.31824786     6.0092754      6.0092754      6.0092754      0              0              0              1.0138095    
    124000   0.2474156      1.0383553     -5.4635943     -3.5842423      1.4254582      1.096233       1.4649609      1.7151807      0.25317478    -0.5287483     -0.15832691     5.961546       5.961546       5.961546       0              0              0              1.0383553    
    125000   0.23983043     1.0330245     -5.4217808     -3.82653        1.1619684      0.85002905     1.2829018      1.3529743      0.20746233    -0.5086229     -0.50019932     5.971783       5.971783       5.971783       0              0              0              1.0330245    
    126000   0.23189751     1.0296357     -5.4657271     -4.5102855      0.57035703     0.22111246     0.61559384     0.8743648      0.55921174    -0.19906125    -0.096482493    5.9783273      5.9783273      5.9783273      0              0              0              1.0296357    
    127000   0.22439356     1.0352652     -5.5136253     -4.1904965      0.9300647      0.69416757     0.98416509     1.1118614      0.49155841    -0.61993038    -0.23938172     5.9674716      5.9674716      5.9674716      0              0              0              1.0352652    
    128000   0.23251831     1.0304094     -5.5310427     -4.4844214      0.6553289      0.57926332     0.70755053     0.67917286     0.28920964    -0.72374581    -0.08242718     5.9768308      5.9768308      5.9768308      0              0              0              1.0304094    
    129000   0.22053205     1.0357239     -5.5137392     -4.0292891      1.0877981      0.75845229     1.4457987      1.0591434     -0.15024927    -0.55469384    -0.20002177     5.9665905      5.9665905      5.9665905      0              0              0              1.0357239    
    130000   0.20906635     1.0411059     -5.5077025     -3.7063204      1.4096106      1.4653305      1.129655       1.6338463      0.13562415    -0.28627265    -0.34591894     5.9562913      5.9562913      5.9562913      0              0              0              1.0411059    
    131000   0.19624697     1.033874      -5.559867      -4.5432323      0.68022898     0.39186988     1.1909613      0.45785579     0.47188703    -0.55509868    -0.051669588    5.9701469      5.9701469      5.9701469      0              0              0              1.033874     
    132000   0.1848324      1.0390659     -5.5805276     -4.2038053      1.0398782      1.0400813      1.1346162      0.94493712     0.1511415     -0.34776353     0.1310685      5.9601866      5.9601866      5.9601866      0              0              0              1.0390659    
    133000   0.15359385     1.0406096     -5.5671944     -4.3033351      0.97875997     0.88701245     0.69038639     1.3588811      0.20001637    -0.32398766     0.053090521    5.9572381      5.9572381      5.9572381      0              0              0              1.0406096    
    134000   0.16370016     1.0378365     -5.5740023     -4.4189073      0.85930262     0.60330209     0.92886664     1.0457391      0.28791861    -0.78431387    -0.10981542     5.9625393      5.9625393      5.9625393      0              0              0              1.0378365    
    135000   0.14910754     1.0450941     -5.6093233     -4.2817811      1.0498437      0.91629606     1.3827965      0.8504385      0.26649919    -0.3665104     -0.18403659     5.948705       5.948705       5.948705       0              0              0              1.0450941    
    136000   0.13216984     1.0452224     -5.6378168     -4.3973278      0.99127523     0.94831302     0.9426184      1.0828943     -0.036010477   -0.33712641    -0.11186889     5.9484615      5.9484615      5.9484615      0              0              0              1.0452224    
    137000   0.14096003     1.0392559     -5.6560037     -4.6658912      0.73667147     0.38339473     0.8370101      0.98960959     0.10789143    -0.10431251    -0.33474425     5.9598234      5.9598234      5.9598234      0              0              0              1.0392559    
    138000   0.11386431     1.0484013     -5.6649951     -4.2809168      1.1571833      0.87811115     1.2015762      1.3918625      0.27443388    -0.31797721    -0.12777093     5.9424432      5.9424432      5.9424432      0              0              0              1.0484013    
    139000   0.10338099     1.0453647     -5.6617414     -4.4609045      0.99456075     0.93466314     0.93155967     1.1174594     -0.11599505    -0.46859429    -0.048499495    5.9481916      5.9481916      5.9481916      0              0              0              1.0453647    
    140000   0.091802308    1.0479054     -5.684814      -4.5367618      0.96315583     0.97359548     0.75599335     1.1598787      0.17135556    -0.33899306    -0.21698164     5.9433804      5.9433804      5.9433804      0              0              0              1.0479054    
Loop time of 15.7819 on 12 procs for 140000 steps with 200 atoms

Performance: 1532895.995 tau/day, 8870.926 timesteps/s
81.1% CPU use with 12 MPI tasks x 1 OpenMP threads

MPI task timing breakdown:
Section |  min time  |  avg time  |  max time  |%varavg| %total
---------------------------------------------------------------
Pair    | 2.7469     | 3.1635     | 3.592      |  14.3 | 20.05
Bond    | 0.057152   | 0.067227   | 0.074387   |   2.0 |  0.43
Neigh   | 0.018649   | 0.018796   | 0.019033   |   0.1 |  0.12
Comm    | 9.7351     | 10.174     | 10.587     |   8.6 | 64.46
Output  | 0.014694   | 0.014786   | 0.01563    |   0.2 |  0.09
Modify  | 1.5127     | 1.5749     | 1.6051     |   2.0 |  9.98
Other   |            | 0.769      |            |       |  4.87

Nlocal:        16.6667 ave          21 max          14 min
Histogram: 1 3 3 0 1 2 0 1 0 1
Nghost:        2269.67 ave        2289 max        2253 min
Histogram: 3 1 0 2 0 1 1 2 1 1
Neighs:        5116.92 ave        7046 max        3913 min
Histogram: 2 0 3 4 0 0 1 1 0 1

Total # of neighbors = 61403
Ave neighs/atom = 307.015
Ave special neighs/atom = 10.45
Neighbor list builds = 88
Dangerous builds = 0
System init for write_data ...
Generated 0 of 1 mixed pair_coeff terms from geometric mixing rule
WARNING: Proc sub-domain size < neighbor skin, could lead to lost atoms (src/domain.cpp:970)
WARNING: Not all mixed pair coeffs generated from mixing. Use write_data with 'pair ij' option to store all pair coeffs. (src/write_data.cpp:309)
Total wall time: 0:00:15
