LAMMPS data file via write_data, version 23 Jun 2022, timestep = 200000

200 atoms
2 atom types
80 bonds
1 bond types

96.80161781513135 103.19838218486865 xlo xhi
96.80161781513135 103.19838218486865 ylo yhi
96.80161781513135 103.19838218486865 zlo zhi

Masses

1 1
2 1.5

Pair Coeffs # lj/cut

1 1 1
2 1 1

Bond Coeffs # harmonic

1 100 1.2

Atoms # full

191 111 2 0 99.75856674084308 97.14208108579709 97.8630325389152 0 0 0
62 31 1 0 96.97387518689075 98.85831987688992 98.22987651227155 1 -2 -2
94 47 1 0 97.11677238849435 97.83098967700052 98.58555207820709 0 0 -1
98 49 1 0 99.62932425251952 98.27451346856644 98.33117309564695 1 2 0
59 30 1 0 97.88648256692333 97.24126427714094 98.19711600587135 2 -1 0
186 106 2 0 99.44367936816568 99.39154382248721 98.14379782893504 -1 0 1
68 34 1 0 98.13755858624309 99.61493259481641 98.16808658953298 0 -1 1
9 5 1 0 98.75894696369443 97.63365438670172 97.65221023523283 -1 -2 3
115 58 1 0 98.67398524797163 98.74728802415889 97.8678807455305 0 0 -1
10 5 1 0 97.6866512642085 98.21196085607855 97.73171223288482 -1 -2 3
126 63 1 0 97.93278944355932 99.17078079333578 97.23944254190984 1 0 2
60 30 1 0 98.8153707531745 97.51746583200955 98.74965022188003 2 -1 0
195 115 2 0 99.02854076262292 99.46177044837307 97.17926293574396 2 1 0
93 47 1 0 97.9811607241311 98.43406435528176 98.70462641783448 0 0 -1
127 64 1 0 99.62099365385194 98.2848638534668 97.32477449157588 0 0 2
162 82 2 0 97.77771845059324 97.284030898087 97.09119484577008 0 0 0
73 37 1 0 99.0266172360456 98.8439133128717 98.89334835660641 0 0 -1
21 11 1 0 99.55794908930585 97.28521473730842 96.90070516613213 -1 1 0
185 105 2 0 99.74956900261671 99.84301283145047 101.0390569242451 2 0 0
71 36 1 0 98.4346051129404 98.07857812932544 99.97936127488275 0 0 0
184 104 2 0 97.43513341495814 99.4553180084895 99.12783620601141 0 0 -2
147 74 1 0 97.8097143309877 99.90298511853901 100.79407637003042 0 1 1
163 83 2 0 98.58233176655376 99.88996394673408 99.1091073504084 -2 0 1
32 16 1 0 98.26549218429246 99.01145556613417 99.65540350506684 -2 1 -2
175 95 2 0 99.69348911050776 97.77793546759075 99.92305549516446 0 2 0
172 92 2 0 97.03189254844986 99.43354038526746 100.19939868135594 0 -3 2
180 100 2 0 97.43809557993076 97.40497407384657 99.50245391937543 -1 1 1
72 36 1 0 97.88129429130575 98.84200581546841 100.65216006286282 0 0 0
74 37 1 0 99.44007519393114 98.76582791183868 99.92610222561126 0 0 -1
87 44 1 0 99.67773823074525 98.04735832490641 101.04457265322841 -2 1 1
99 50 1 0 98.75225173216562 97.3720645245496 100.59446511541923 0 3 -2
148 74 1 0 98.75445615301003 99.39652208097905 100.47601647138657 0 1 1
136 68 1 0 97.26580686892584 98.36150518875642 99.98072201126462 2 1 -2
107 54 1 0 98.78229018715194 98.3926057421322 100.96144164309517 -1 0 -1
145 73 1 0 97.6345783802792 97.69514302285282 100.87294890401296 0 -1 -1
27 14 1 0 99.97700539868659 99.60676501023714 99.27232433625382 -2 -1 0
97 49 1 0 99.85029627920811 97.43634480453183 99.01346312446367 1 2 0
131 66 1 0 97.52864671842401 99.29543179264138 101.91801012193721 0 -1 -2
156 78 1 0 97.22452892569495 99.65973175980365 102.98434589370575 1 1 -1
117 59 1 0 99.11949928153824 98.79074482580297 101.85926267301238 -1 0 -2
56 28 1 0 96.80766136627487 99.75798586911996 101.2447744552804 1 0 1
135 68 1 0 97.05056745593635 98.63579187799922 101.14963345695753 2 1 -2
24 12 1 0 99.28706868270778 99.76856127958897 102.2417978760222 -1 0 0
155 78 1 0 97.68059135886558 98.55378957501824 102.69348583754227 1 1 -1
149 75 1 0 98.24412907385326 97.62046576704564 102.64280921708585 0 2 -2
199 119 2 0 97.30442235987528 97.18878701850551 102.4145295496468 -2 -1 0
132 66 1 0 98.31566138142053 99.35565147821544 102.59523817278905 0 -1 -2
118 59 1 0 97.86732644002424 98.27920515044498 101.70569142971856 -1 0 -2
128 64 1 0 99.67630792505246 98.01558148139796 102.54983726236026 0 0 1
116 58 1 0 98.70796512821718 98.51099241637222 103.0750490917103 0 0 -2
23 12 1 0 98.73080201956675 99.84151360034687 101.4008889819404 -1 0 0
108 54 1 0 98.98993996037656 97.56629588467773 101.73876672136886 -1 0 -1
164 84 2 0 99.74044213592119 99.01731857384917 102.92803954292043 1 -1 1
100 50 1 0 98.13503885817028 97.06664475090334 101.55720873390717 0 3 -2
67 34 1 0 98.71992366480264 100.49005037050492 97.63956219200165 0 -1 1
51 26 1 0 99.80790247304458 101.30107597830738 98.32782890398397 1 -1 0
20 10 1 0 98.53319246262758 101.97533470506464 97.88873907523589 1 0 0
18 9 1 0 97.81961507196536 101.02853343132745 98.19254457415539 0 -1 -1
19 10 1 0 99.10913956003292 102.68662884107124 98.63017677749275 1 0 0
6 3 1 0 96.99640683723327 102.91851085688133 96.88689326661925 0 -2 0
165 85 2 0 97.61126927464905 102.75772873131834 97.83598283751118 2 1 -3
85 43 1 0 99.37848311223385 100.42255468569451 98.72611511078364 1 2 0
129 65 1 0 97.35723334368198 100.14089737928946 97.5724142360401 1 0 0
42 21 1 0 98.74453414543413 102.99122875551393 97.57639015924296 -1 0 0
52 26 1 0 99.28172875706531 101.23927585551908 97.32601057259825 1 -1 0
41 21 1 0 99.82391548471533 102.46997752189708 97.84942740387822 -1 0 0
190 110 2 0 96.97249748692506 103.0252558920198 98.69224641768571 0 1 -2
104 52 1 0 97.20058827171913 101.71225689933195 97.3197306587366 1 -1 1
5 3 1 0 98.06070214369197 102.5426416887302 96.85801924319094 0 -2 0
157 79 1 0 98.79687682141422 101.38363436773516 98.91047746119526 -1 0 2
46 23 1 0 97.74451428172014 102.08425943643036 98.81000908393074 -1 0 1
141 71 1 0 97.37414592904904 101.4652526624329 99.71585480728993 1 0 0
178 98 2 0 98.07131128621276 102.34340607204186 100.04221594822616 -2 0 0
54 27 1 0 99.02547271554147 102.55731919399702 100.54110839621065 0 -1 0
76 38 1 0 99.20403646105659 103.18457171709898 99.76718253669532 1 0 0
31 16 1 0 97.83333895359999 100.2736603304878 99.71277452321112 -2 1 -2
158 79 1 0 98.85306213036667 100.52437441688708 99.77988537714594 -1 0 2
92 46 1 0 97.01403855040238 102.58406039437276 99.62701422474733 1 0 0
160 80 1 0 99.30033259780647 101.55588736253341 100.05247861780244 1 0 0
159 80 1 0 99.78423970867962 100.52909649410687 100.19837951471523 1 0 0
75 38 1 0 98.07262670841286 102.93474309161476 99.19494714911315 1 0 0
142 71 1 0 96.93707870930781 100.49005109204498 100.2639685947456 1 0 0
91 46 1 0 96.95716251369046 101.77359624792857 100.65778044825736 1 0 0
177 97 2 0 98.10073941458106 101.77328575642174 100.90129965614624 1 0 1
167 87 2 0 97.79789279268346 101.29131866826935 102.06061739421008 2 -3 -2
169 89 2 0 97.58664338323284 102.6109123924546 101.07118139035714 3 -1 2
77 39 1 0 98.94250264827717 101.01878221936792 102.1415305546098 1 1 1
150 75 1 0 98.83814596858218 103.01273021418733 102.87338115119486 0 1 -2
138 69 1 0 98.06221710507799 100.33218122043431 102.09148405739936 0 0 0
151 76 1 0 97.43372396795468 100.93386528525232 101.11151928646044 -1 0 -1
80 40 1 0 98.9309982089909 101.97823596757644 101.97483990514037 -1 -2 0
35 18 1 0 97.97000799496855 102.3687981127524 102.12085822607216 1 0 0
137 69 1 0 97.51082823959362 100.90792470549077 103.1598626092333 0 0 0
152 76 1 0 96.99677795658486 100.63570771989971 102.24233290265637 -1 0 -1
179 99 2 0 99.89791227773408 100.5847881295872 101.71745943149716 2 0 0
78 39 1 0 98.44881935931608 100.81338051990495 101.21160881002459 1 1 1
79 40 1 0 98.52381603879897 101.38765383170153 103.08263944826626 -1 -2 0
22 11 1 0 99.6084374473314 102.80354415689611 102.30958880804849 -1 0 -1
198 118 2 0 98.37014504123881 100.22366645075915 103.07930236795256 1 0 0
8 4 1 0 99.3767389417144 100.41744638644505 103.1621206498784 -2 -2 0
193 113 2 0 99.33696710711502 102.15199091491301 103.04621575096152 -2 0 0
181 101 2 0 99.7230918223904 101.61661059882115 101.17545876567685 0 0 1
102 51 1 0 100.88065207400085 98.41926952332102 97.1449296970111 0 1 0
170 90 2 0 100.65690973979643 97.30355164825154 97.23630319608927 0 2 1
125 63 1 0 103.19012108628758 98.81140093494199 97.03710322722314 0 0 2
154 77 1 0 100.30107494225271 99.63098025915731 97.31508293253994 0 0 -1
37 19 1 0 103.13331400659462 97.09520306103751 97.78031420081258 -2 1 2
38 19 1 0 102.49244727264343 98.06377981075872 97.36179672743246 -2 1 2
61 31 1 0 102.1913714775142 98.90863271796931 97.9622877404408 0 -2 -2
153 77 1 0 100.5134283291638 99.1162522898325 98.3810573199406 0 0 -1
196 116 2 0 102.48924042260047 96.98530619075753 96.9095560999883 -1 1 0
120 60 1 0 101.48182405114333 97.65318493024958 97.81976566055855 0 1 2
101 51 1 0 100.53733370819792 97.83601369844025 98.14629421249327 0 1 0
176 96 2 0 101.26226249645475 99.34720129619517 97.59020919646687 -2 1 0
130 65 1 0 102.70799364031929 99.6382820986282 97.48710725699769 0 0 0
57 29 1 0 102.43411188089856 97.76216285831798 98.46721236796073 -1 -1 2
161 81 2 0 101.42514308795019 98.52785833668673 98.9199068197822 3 1 1
58 29 1 0 101.81885554125894 96.9194950068267 98.79473958813978 -1 -1 2
194 114 2 0 101.05194253497227 98.19954837296363 100.08829514392644 0 1 1
173 93 2 0 101.11646696189342 97.44492109223285 100.83772322053738 1 0 -1
70 35 1 0 100.86095648244084 96.81004152431872 99.23348039661062 0 0 0
197 117 2 0 101.472612967836 99.082228297698 99.86442922726327 1 1 -1
143 72 1 0 102.70931948417346 98.28254880422931 99.45493414349457 -1 1 -1
144 72 1 0 102.9510074533099 97.60256328111538 100.41238683735558 -1 1 -1
4 2 1 0 101.83706229649572 97.03505712063722 100.1643600576929 -1 0 1
109 55 1 0 102.00443338943123 97.90275311175088 100.73690389095545 -1 1 -1
88 44 1 0 100.05563581206698 96.9432845727897 100.40907760667264 -2 1 1
122 61 1 0 102.81102945830337 99.33581927151998 99.21905521484854 -1 2 1
28 14 1 0 100.4894584004978 98.49621467516691 99.29176497737765 -2 -1 0
121 61 1 0 102.4630546066698 98.79029899140683 100.30378438387967 -1 2 1
43 22 1 0 100.42743952257042 99.0725012686455 100.36131460490734 -1 -1 0
11 6 1 0 102.19191076136839 99.88189149770346 100.80958723835774 -1 1 -1
112 56 1 0 100.84772402643218 99.93149795587662 99.60810839356998 -2 0 -2
3 2 1 0 102.77986695675233 97.10482825057119 99.3275983293068 -1 0 1
111 56 1 0 101.86361475561831 99.63441971426916 99.02430048805564 -2 0 -2
2 1 1 0 100.42607141957296 97.23953282758448 102.59566326675143 -1 1 -1
40 20 1 0 101.19482119167722 98.44831302900305 102.33636930508501 1 0 0
44 22 1 0 100.50351672480325 98.62456443002057 101.58001304245528 -1 -1 0
39 20 1 0 102.19799903332884 98.90475003181102 102.89824260417993 1 0 0
95 48 1 0 100.80055392557077 99.50018048881067 102.82086170535436 -1 -1 -1
139 70 1 0 101.71493399026662 99.6340945202024 102.3329891470751 1 -1 0
168 88 2 0 102.40742384652937 98.81300012240031 101.42002699019633 -2 0 -1
119 60 1 0 101.48532397108866 97.71772446485369 102.99914608543207 0 1 1
140 70 1 0 100.78651622023081 99.88758310758308 101.63292803288455 1 -1 0
110 55 1 0 101.41710593806164 99.04346044461889 101.09016370511814 -1 1 -1
188 108 2 0 100.24510284442015 97.28642942476479 101.5952096147106 -1 2 -1
171 91 2 0 102.37810856334578 97.58115734201165 102.14549458840601 -2 -1 0
192 112 2 0 102.78455710232565 99.675868060231 102.38767303758289 0 0 -1
25 13 1 0 101.35922908659005 97.67687355610984 101.82971314583261 0 -1 -1
146 73 1 0 103.17493312890652 96.85916787242621 101.3689153788802 -1 -1 -1
166 86 2 0 103.03636160729056 98.41872049955846 102.3314647727965 -1 -1 1
83 42 1 0 102.09674035724765 96.81911685627864 101.33157160138431 0 3 -1
29 15 1 0 102.08702665846101 100.2624208095984 98.10472452769463 0 0 1
105 53 1 0 102.51385782330486 102.20481986383437 96.98105020059175 0 0 1
34 17 1 0 101.89379360755322 101.30388391293243 97.45503832367729 0 1 -1
123 62 1 0 100.38095840772156 101.643559322674 97.39946306530219 0 -1 1
106 53 1 0 101.43514447872343 102.88841109530094 97.21977369630206 0 0 1
48 24 1 0 102.61113268837562 102.57055168474186 98.19901414720212 0 -1 2
17 9 1 0 103.00565065339634 101.26465118638335 98.18456914485944 -1 -1 -1
69 35 1 0 100.83278106051719 103.15400480370359 98.10804241665724 0 -1 0
187 107 2 0 101.06453328221777 100.63466800334568 97.16205768631278 0 1 1
124 62 1 0 100.864442662207 101.00668167684462 98.3444486247711 0 -1 1
103 52 1 0 102.88679078827471 100.77858322451286 96.92296460916698 0 -1 1
47 24 1 0 101.4633748974412 102.05264798921716 97.93627297993034 0 -1 2
7 4 1 0 100.06757178849452 100.54953100499469 97.65273904416922 -2 -2 1
200 120 2 0 100.9675675862284 100.04962021037728 98.35891927843724 0 -3 2
189 109 2 0 103.09229559513805 100.11371902723918 98.37654462999359 -2 -1 0
33 17 1 0 101.95856384326322 101.24245107023224 98.68822966787184 0 1 -1
1 1 1 0 100.50398822216509 102.63943172078552 96.84956721102127 -1 0 0
30 15 1 0 101.95483787078142 100.13520430192332 96.88065425852946 0 0 1
45 23 1 0 102.96461555077781 101.92417295691476 98.9851536171343 -2 0 1
183 103 2 0 100.10512579049163 102.15607873989633 99.04535906632078 -2 -1 -2
50 25 1 0 102.09123837837541 100.27674007006003 99.78561735834131 0 -1 1
174 94 2 0 101.18572413320106 102.45511973187175 99.88448667898768 -1 0 -1
53 27 1 0 100.11488355912412 102.38323268620704 100.15285565512393 0 -1 0
134 67 1 0 101.07469430285242 101.53510049641466 99.3408636801127 -2 1 -2
86 43 1 0 100.28263207806887 100.80835232898681 99.29168636197325 1 2 0
113 57 1 0 102.61735447390934 102.67294727854431 100.28684089916338 -2 -2 0
13 7 1 0 102.5377802873469 101.55362803481188 99.92240256448297 -1 -1 0
15 8 1 0 101.80215802789102 102.38828557097845 100.9066972939306 -2 0 -1
49 25 1 0 102.87494520394688 100.86030514402286 99.25167041495241 0 -1 1
89 45 1 0 101.59897958752538 101.14757902624292 100.47468388571524 0 0 1
12 6 1 0 100.86252889900555 100.07373700446603 100.61608855127321 -1 1 -1
133 67 1 0 101.92520809339861 102.42350800460581 99.13655345545726 -2 1 -2
65 33 1 0 100.48984176397457 101.43155929035053 100.54747584923477 1 -1 -1
14 7 1 0 102.79221277093342 100.9916374834532 100.96775274227073 -1 -1 0
96 48 1 0 100.35390035107407 100.50506521912119 102.77947938639791 -1 -1 -1
26 13 1 0 101.24572026163588 103.04772626960848 102.52477825307129 0 -2 -1
63 32 1 0 101.32846190011557 101.87810533491214 103.15904957367727 1 -1 0
84 42 1 0 102.78719499333033 102.98434185280128 102.35631367624157 0 2 -1
64 32 1 0 100.18973049766178 101.62655322907715 102.75411800495927 1 -1 0
16 8 1 0 101.97231642266286 101.42439150770078 101.51220204533388 -2 0 -1
81 41 1 0 102.0165267709288 102.2606405719996 102.16864204034351 -2 1 -1
182 102 2 0 101.28222883109996 101.15512047219171 102.4313670329232 -2 -3 1
82 41 1 0 102.20704285009381 101.30977554161502 102.8322378636751 -2 1 -1
55 28 1 0 102.3815015002962 100.56951827964964 101.89649433284528 0 0 1
66 33 1 0 100.9515024987136 102.10591877990998 101.34171034344779 1 -1 -1
36 18 1 0 103.17770101231216 102.05599500402818 102.26446179074715 0 0 0
90 45 1 0 100.85215112458582 100.96113201221728 101.4437017850589 0 0 1
114 57 1 0 102.83595482684724 102.21065120948653 101.38762406142743 -2 -2 0

Velocities

191 0.6029320516633166 -1.375590734302312 1.3813659764142865
62 -0.24000383263557304 0.3727215841939683 1.1540825053724444
94 -1.658811102177158 2.082169537690891 1.8061282082154093
98 -1.4350211184166202 0.492491336208053 -0.8335865713876955
59 0.6289537143785809 1.6590493547431662 0.09468146485764255
186 -0.009073990630210612 0.8195193687010653 -0.21404014414630473
68 0.6491611511432007 1.7268031530934038 -1.0740119103246697
9 0.7847704467723964 -1.8436879164847073 0.7362910907608142
115 1.023814353267464 -0.8111249026469752 1.2041256423646427
10 -0.11363333460632531 0.2643671790297579 -1.2237121692148658
126 -0.16969934856382315 -0.41318201745623784 -0.2506566028754464
60 -1.5623234715455692 -0.6870176579981326 0.9278390251646798
195 0.2757896010401056 0.30876370928776425 1.0740154731352738
93 0.4650556708096583 -0.340001654073571 1.4699055626741881
127 -1.0058122936613967 0.13833896944437374 1.1360502589956183
162 -0.47988580712882195 -0.22148156043110895 -0.41099705945747295
73 -0.47407658566369393 -1.0295920946014177 1.4048481708429235
21 -2.6918521433593523 0.47519867861006554 0.547918413207943
185 0.30409393430962117 0.9987314538879174 0.6606185033828713
71 -0.42577593589046625 -0.5611979032855259 1.200674653254968
184 0.8300657109491744 -0.28614184563693046 -0.3688581171834187
147 -2.4141653055079133 1.6204986366290581 0.7296504646034659
163 -0.044746835704915444 -0.1898421683981283 0.3579481405574385
32 -1.2128088132933046 -0.8788226735738981 -0.4193313488721381
175 0.7436056843857569 -0.7956630176499422 -0.7330038369125896
172 -0.4955619074337597 0.2739298528713961 -0.3512834117261676
180 0.32630162418121106 0.6148951775247995 -0.5163780302049951
72 -1.2440994095720599 0.11533343702985728 -0.4501259409147855
74 -0.2028107627777179 -1.264040144899432 -0.1829297111293555
87 -0.32695900728353 0.1640046744801108 0.3998823132816218
99 0.8427976301643254 1.6303452145188944 -1.0743531470295264
148 -1.0093736952760675 0.1798220767730838 -0.5781239363335539
136 1.1921434055971234 -0.7432888728876178 -0.9972641742635534
107 -0.4136623392057437 -0.365087414953544 -0.24649430189468055
145 -0.7140936664413076 0.12230520005188748 2.372135225183099
27 0.8118176543313375 -1.4559964840598956 -0.2836566403136941
97 0.22027033122548448 1.512589882405994 -0.6656863334561969
131 0.6611384607955695 -1.5452159153380967 -0.6918262448597425
156 0.9681617913496501 -1.2045091081536616 2.2323225715619497
117 1.955233972511352 0.4823878228295714 0.9413246557268831
56 -0.5329046351023303 -0.5811504310995368 0.17252273294754297
135 -0.4890741852382737 -0.4352741883599159 -1.7651482067303723
24 -0.7960779043185913 0.4286302581759777 0.39701278563163755
155 -0.19674902420811013 -0.39665307306501185 0.44174809819447286
149 0.08566899555895442 -0.4875185203315542 0.7283918286786695
199 -0.2859116907303344 1.7190449313628222 1.8685197565015172
132 -1.2997904911654932 -0.17106230269020178 0.7500637171763203
118 -1.8615683782381354 0.14258354476974036 -0.6477154834295107
128 0.598275979968695 -0.21973146215487435 -1.366829935041908
116 0.45603446529121366 0.12287969285349827 -0.5447831459427233
23 0.060641474365812506 -0.8532426903448753 0.9481594632728976
108 -2.097101579181325 -0.29719856528812755 0.9119278385979837
164 1.1773251445308848 -0.44092315643521696 -0.2460592190786248
100 -0.05468466679276578 0.8532045903515676 0.04511867572235486
67 -0.20173528225420506 2.4808180681431677 0.30771430756142765
51 0.2938759454255364 0.20104133834839644 1.3660600633991904
20 -0.38813044227219556 1.8703255372963645 0.4613378094075429
18 1.7781398748473938 -0.929044220938755 0.43692162526092604
19 -0.3697989965760639 -0.60221654639206 0.9651757981240205
6 0.18217231014049298 -0.3776773633154958 1.5952521954966923
165 -0.34979073878739325 -1.2263549202291115 -0.04763330863654139
85 0.28518511042882977 1.0392509458097232 -0.11637639898517595
129 0.6059269353055509 0.25141444070669217 -0.34035064265371406
42 -0.35443529013706465 -1.5658493914728502 1.2275540850937898
52 -0.44769193824734227 0.11316290443288902 0.46214185677139186
41 -0.3346226669177878 -0.48544181351781057 0.1938923722005296
190 -0.8927559312086063 -0.37912749349615116 -0.014432820469819176
104 1.2726702828099323 0.5619274778604965 -0.7853564431505472
5 -1.1160475697154741 -0.6500260976207486 1.2362346243149902
157 0.7644308042362853 -1.5480440705560707 -0.7822299414629649
46 0.2796130182475017 -0.42756013477818683 0.6265612002258117
141 1.3236292791947388 1.5883591955666823 -0.5536215009394503
178 -0.703770513593573 -0.5411310631733257 0.38348323247307303
54 -2.436374476681198 -0.1563837932883772 0.6377282507764728
76 0.9203147759923299 0.6663074106661936 -0.4859888762540623
31 0.9128185955985711 -0.044650154586683644 0.21012222222415128
158 -0.9752694794457318 0.4425039528661321 -0.6010159886079183
92 -0.8066364892413977 0.3078218462142604 -0.9881936557636221
160 0.024006642512938627 -0.29373390325232257 0.8952899955084551
159 0.9355397336203851 -0.3868647700881665 0.3850928413550391
75 0.8619902397742897 -0.06763610575173551 -0.01103338531981694
142 0.045443954929541834 -1.1323593026442011 -0.19629441797985772
91 0.13484906000647834 0.9006618428400746 0.6334730029582835
177 -0.7286827225921683 -0.899215733113344 0.4432868745964614
167 1.2397279586034076 0.9905337558583237 1.161052087029951
169 0.18860313935245343 0.47542146532708857 -0.488929231305799
77 0.32138214694556744 0.23944956603017256 0.43336889765407516
150 -1.456229795556209 -0.25587967763922315 0.5604440229223335
138 -0.0626756675562946 -1.1716611160995571 -0.44793358891855634
151 0.5631593745719048 -1.964930858641507 -0.6706949821921723
80 0.29669865540441026 -0.26756934844927466 -0.20824898642536477
35 1.4135347179198507 0.12628494084541633 -2.015128864319357
137 -0.8742303321422396 1.5917748954350919 0.36659980157486466
152 0.7708068081851399 -1.186710040901861 -1.5550340480066698
179 0.7340040316546826 -0.2074236306826387 0.5419893342550733
78 -0.55543248883647 -0.5204841612155816 -1.951257055883838
79 0.31430967189744746 -0.14729535486157289 0.5639777000332665
22 -0.7373257676495839 -0.404840995435332 0.43627836060714603
198 -0.25226996163029275 -0.3661553682086467 1.0310448094566966
8 -1.3597505768582514 0.6159423794018414 -0.10157208174331796
193 -0.43322302661406537 -0.15287959476520022 1.3831961969363196
181 0.5325693623087813 1.1145074379772362 1.1115830329910685
102 0.0423409564874643 0.05137415890585181 -0.4645648088711187
170 -0.3575142133142552 -0.36715657027416754 1.996388906523723
125 0.43537212571693845 -0.8510660952759914 1.0499301227778697
154 -0.5549050766202841 -1.0495609131959915 -0.4531390253022968
37 -0.2675413694152311 1.1740332733971715 0.6054701177900215
38 -2.048066255786649 -0.1460045837953056 -2.068285257445873
61 1.2144611922358548 -0.669554516606523 0.013772735380106331
153 -0.030597051656120377 1.9582515647929164 -0.35604827622484475
196 -0.16292182983959097 0.21007487880521303 -1.3809489974602043
120 2.1932351124634293 0.005448381113541661 -0.14640718522901122
101 -0.12925023902177454 1.529807074575669 0.036174687705349644
176 0.47009832138145907 -0.15339649419094167 0.4425487882449438
130 0.24786585057104704 0.52646682856967 -0.4233634557454214
57 1.334230977261751 -0.208139129791556 0.47476091611100035
161 0.7908268831212372 -0.4239438113327529 -1.439828625036217
58 0.7448587033819684 -1.3347194158609652 -2.019775658832567
194 -1.0136488920727955 1.0827470053452963 -0.42689937220836127
173 0.07140588000652807 0.9533132524807991 0.012696335968820917
70 0.011883506141669631 -1.7926647936030211 0.02433373940397137
197 0.5723612215261538 0.0037487236808322103 -1.264374452094129
143 0.8817125756687996 -0.5767124477590427 -2.5087365262379637
144 0.31506527983614385 0.6526404047123969 0.08589053322034389
4 0.2328976558615993 1.1629091427206155 -0.7064698179243487
109 0.09695562983040823 0.3272731022220992 -0.3769287313348155
88 -1.3011587021233972 1.9654844067520283 0.032367417802361326
122 -1.6292139251086697 -1.2015929245189498 0.8130324946135726
28 -0.035485354800206696 -1.3327932313481752 -0.185469062142635
121 0.8244688696085758 0.40620508818851375 0.2546926744110395
43 -0.09407702156510517 0.4641346246407393 -0.5710369148193831
11 0.8402875369705054 -0.5602805020674407 0.5182093952656032
112 -1.1052242861809851 0.007722375558445002 -0.3973648113759969
3 -0.3694047591329103 -0.2705855885152309 -0.6153709475013776
111 1.1571374847431803 -0.9014065948705949 0.5000342275785509
2 1.7932782556094764 0.6217800824006174 -0.7540761974484668
40 0.8033606375759332 0.7906232691930707 -0.5267845241858485
44 0.016700648411903857 0.7627224282239663 -0.6923766777897624
39 -0.7778207019592129 1.0649745207313246 -0.35233756839035174
95 -0.6086232426076141 -0.5517290305362905 -0.5420017332829477
139 1.6502490214061196 -0.06939188115077605 0.8991798852194686
168 -0.2439968863938037 0.8014405263505057 -0.692002130700279
119 1.2997286556724403 -0.25306822552859853 -0.87137557772222
140 1.116298448218931 0.873153760761386 -0.9035896128305799
110 -0.30299310429402904 -0.09427655146393471 -0.7826724629687241
188 0.13246826477097992 0.22800738357676653 0.8821481790827758
171 0.1385947082853053 0.7687394097699258 0.10903405651624047
192 -0.8563897372768753 0.5140735732839045 0.38911689976993713
25 0.012412699295752824 1.0784996023210252 1.2791561851716748
146 -0.60218439985577 0.18611409269242163 -1.3248510465348187
166 -0.768069303920886 -0.8688229360428126 0.9055034992787061
83 0.02878778293162461 0.01500592066123218 0.9478749588292935
29 0.23099016636488956 -0.2381974398541592 -1.0987544494865116
105 -0.517645700180689 0.4488495461755077 -0.5227103211472404
34 0.8877224544109964 -1.0679330653535581 -1.8049166680222504
123 -0.5565967660930419 -1.427249310303298 0.4986988391880485
106 -0.6985021059857758 -0.12052671667120858 -1.5310450005384428
48 0.8650246367657454 1.076196195331355 -0.9939777599168264
17 -1.141705269214677 0.32555099390418607 -0.21474410720102324
69 0.1680853375305647 0.43955249139856967 -1.3535892883345513
187 -1.6745972193227863 0.25935023180043587 -0.19047618450624712
124 -0.8187090336459727 -1.139627603241934 0.6068255870982471
103 0.1841191580931217 2.2151374054798385 0.9097774330873097
47 0.8858732361011449 -0.7778343765273311 -1.4784103117551626
7 0.7018034569930525 -0.8344251398896096 -0.9966225444445167
200 0.7547613828654912 0.34832205491372575 0.47098321349378663
189 0.7859775803355151 -1.3452553533989469 0.42729997281689425
33 1.9197935404246516 -0.23878585228552823 -0.6648956825286179
1 -0.7447609559502095 -0.9126399111830545 0.6463494866161144
30 1.3540555396670617 -2.2051216073818316 -0.32786181950972165
45 0.547511965910775 -0.4152068672354097 0.7470603756989436
183 -0.1778911604829999 -0.2489606430006073 -0.059053428196924766
50 0.2898117571024154 -0.757258192548672 -0.4914668397678904
174 1.1791122343201998 -1.4754906315709526 0.43826571272179754
53 -0.07474936579202698 0.6285272902769399 -1.2030802078027243
134 -0.9959014607886273 -0.653167880213301 0.6380805816046845
86 -0.6091316708739178 -0.49981894941395283 -1.003024602445787
113 1.1098932754133257 -1.0565384760405778 -1.0478062825624002
13 -1.4559320530310624 -1.0156350772308698 -0.09507709588599415
15 0.9525648765065241 0.3027580541744816 -0.08300971388711152
49 -2.9659486022591692 -0.6712928173062483 -1.8025975358887452
89 0.9338080852128692 0.2290683870993625 0.9964795529559993
12 0.38067122743002946 -0.27369934284235975 -1.3624603444295995
133 -0.5804720008632259 -0.05659930434175213 3.438704117967766
65 1.040481437841051 1.3511140527502685 0.25590871204386684
14 0.66248559662307 1.6181031119820024 -0.8963731092027665
96 0.6617041029781608 0.9969578332610451 0.0909348724102596
26 0.1272152459310042 -0.5756113915691038 -0.7140015278253359
63 1.6356863286115124 -0.039079384030537845 -0.6774412667617752
84 -1.4861400133904683 -0.5110076706270636 -0.3388848241341052
64 -1.4355378236440213 1.5154619399834255 1.1438888216812715
16 -0.7567931426386183 0.7173391237390325 -0.024099604127021817
81 1.0649111828351052 1.1398423775008413 -0.8886291217123804
182 -1.0927715541431877 0.23277303316685305 -0.16953626989758322
82 1.1824167619325152 1.313259729603667 0.3798911077918843
55 1.429216172587141 0.019106401382609148 0.7885827583489291
66 -0.19515832689138177 0.4994254925585395 -0.8739103096562851
36 -2.388405343355516 0.16474371540904248 0.3447007426837085
90 0.7437044211692877 -0.20338320726107792 -1.5302538391513196
114 0.1996522139156835 -0.6122193365164006 -1.2915842737184524

Bonds

1 1 59 60
2 1 9 10
3 1 115 116
4 1 93 94
5 1 127 128
6 1 73 74
7 1 21 22
8 1 71 72
9 1 147 148
10 1 87 88
11 1 99 100
12 1 107 108
13 1 145 146
14 1 27 28
15 1 97 98
16 1 131 132
17 1 117 118
18 1 135 136
19 1 155 156
20 1 149 150
21 1 23 24
22 1 67 68
23 1 51 52
24 1 19 20
25 1 85 86
26 1 129 130
27 1 41 42
28 1 5 6
29 1 157 158
30 1 141 142
31 1 31 32
32 1 159 160
33 1 75 76
34 1 91 92
35 1 77 78
36 1 151 152
37 1 35 36
38 1 137 138
39 1 79 80
40 1 125 126
41 1 37 38
42 1 61 62
43 1 153 154
44 1 101 102
45 1 57 58
46 1 143 144
47 1 109 110
48 1 121 122
49 1 43 44
50 1 11 12
51 1 3 4
52 1 111 112
53 1 39 40
54 1 95 96
55 1 139 140
56 1 119 120
57 1 25 26
58 1 83 84
59 1 29 30
60 1 105 106
61 1 123 124
62 1 17 18
63 1 69 70
64 1 103 104
65 1 47 48
66 1 7 8
67 1 33 34
68 1 1 2
69 1 45 46
70 1 53 54
71 1 113 114
72 1 13 14
73 1 15 16
74 1 49 50
75 1 89 90
76 1 133 134
77 1 65 66
78 1 63 64
79 1 81 82
80 1 55 56
