LAMMPS data file via write_data, version 23 Jun 2022, timestep = 140000

200 atoms
2 atom types
225 bonds
2 bond types

97.02259791805083 102.97740208194917 xlo xhi
97.02259791805083 102.97740208194917 ylo yhi
97.02259791805083 102.97740208194917 zlo zhi

Masses

1 1
2 1.5

Pair Coeffs # lj/cut

1 1 1
2 1 1

Bond Coeffs # harmonic

1 100 1.2
2 100 1.2

Atoms # full

109 55 1 0 97.95464644264315 97.49584265127352 98.57800076695887 1 1 1
183 103 2 0 98.89523254611548 98.514432243503 97.15788909384442 0 -1 0
166 86 2 0 97.1089181463136 99.50593978915849 99.19106416735492 2 2 1
18 9 1 0 98.19066606765836 99.095883656907 99.38549854854848 0 -2 0
16 8 1 0 97.61395357062374 98.46663808350827 98.82635387081135 0 0 0
98 49 1 0 97.52625887589556 99.28989280628906 98.15287558768927 1 1 0
167 87 2 0 99.80446447701448 98.1649459692894 98.72710121325113 2 -1 -1
112 56 1 0 98.75888564404431 98.2613396893112 98.96434781894538 1 3 -1
133 67 1 0 99.01846522374991 97.78622078981941 97.92979469466283 1 0 0
111 56 1 0 99.21919319836937 97.22278864617661 98.76884649660347 0 4 -1
124 62 1 0 98.56664613316653 99.47520494550649 98.47554769739533 -1 1 1
119 60 1 0 97.8672775894174 98.55139742046504 97.04775185756954 1 0 1
158 79 1 0 99.46774813475477 98.97408592736019 98.0460994532834 0 0 1
110 55 1 0 98.30143665167606 98.53483124851591 98.05046399620784 2 0 1
123 62 1 0 99.3411942527452 99.1311509780086 99.27788498576187 -1 1 1
144 72 1 0 98.27671960074301 99.42780895105675 97.43292510759262 1 -2 0
43 22 1 0 97.45310911515602 97.45616889334687 99.49135805111918 1 0 0
157 79 1 0 99.97814569527395 98.07605914484155 97.44556367001766 0 0 1
60 30 1 0 98.68325886319721 99.84047368795741 99.88401928652671 -1 1 2
15 8 1 0 97.27671808763345 98.03816448313846 97.81117828576912 1 -1 0
67 34 1 0 99.41168684675124 97.74577127899867 99.72581334845133 0 1 -1
191 111 2 0 98.07811950434771 98.17576685788632 99.93795565702388 0 -1 0
146 73 1 0 98.4568647338794 97.38528400036788 97.1411047266523 -1 2 3
99 50 1 0 99.32311850891644 99.51892985257254 97.10009093692105 1 0 0
127 64 1 0 97.08712878596468 98.55612107059342 99.75935328253902 0 0 0
55 28 1 0 100.13673834516995 97.19526860499074 99.19044790364885 -2 0 1
184 104 2 0 100.2138915170902 99.73052793441039 99.65001551044163 0 2 0
76 38 1 0 100.2112207294781 97.22858659314632 98.09849970617812 -1 1 1
176 96 2 0 102.7185432532545 97.81214408095838 98.823059331817 2 -1 0
199 119 2 0 100.34969037546578 99.1321223455247 97.22594936344319 -1 -1 0
105 53 1 0 102.29624828004242 99.67259266014409 98.02312496104723 1 -1 0
74 37 1 0 101.71428715656756 98.2028501394354 99.32138117127077 0 -1 1
30 15 1 0 100.50723159627921 97.95316902139253 99.82408926156984 1 1 1
73 37 1 0 102.54829401975316 98.79465211367986 98.5999811345403 0 -1 1
108 54 1 0 100.56785400806503 98.80430894796463 99.11717486488479 -1 -1 -2
113 57 1 0 100.68803242675395 98.5736155311367 98.05060354358503 -1 1 0
93 47 1 0 101.23642482642784 97.20796611112223 97.6553942340953 2 0 0
178 98 2 0 101.46386420375195 99.10728095961134 98.61851326730235 -3 0 2
5 3 1 0 100.41249920983788 99.6221559459499 98.4830303777548 0 -1 1
29 15 1 0 100.89234142056267 97.80326460263028 98.71737320125503 1 1 1
114 57 1 0 101.7875897248725 98.80099833588608 97.59364241963237 1 -1 0
107 54 1 0 101.18549764819961 99.84143335725138 99.41843677263894 -1 -1 -2
49 25 1 0 102.4512218993147 97.64208848106112 99.84948409013109 -1 0 0
6 3 1 0 101.24628566014965 99.6480162512843 97.57618262910816 0 -1 1
94 47 1 0 101.83996075376778 98.03084397225567 98.23560733539657 2 0 0
120 60 1 0 102.80871426351713 98.97981804521042 97.35195386663756 0 0 1
22 11 1 0 102.3708708565412 97.95989308715643 97.15961053880046 -1 1 1
36 18 1 0 101.16752709978178 98.77625231168048 99.98849279472277 0 0 -1
128 64 1 0 102.07699961460712 99.16797467115111 99.48253659825204 -1 0 0
21 11 1 0 102.47443778476001 97.11288129609028 98.05175208667596 0 0 1
50 25 1 0 101.86818021866826 97.20538981909924 98.91715848401316 -1 0 0
14 7 1 0 101.11143065681954 97.11579536979572 99.63630934938166 0 1 2
57 29 1 0 102.64837254796177 102.90981166239591 97.06700444363662 -3 0 1
187 107 2 0 99.47746313379827 100.11843146054302 98.09455070828045 -1 2 1
188 108 2 0 97.5327027427821 102.78216898421414 97.73877974802109 1 -1 0
143 72 1 0 97.18917336674525 100.04737727862343 97.42570072518845 1 -2 0
91 46 1 0 97.79497988010222 102.36732543645336 98.80967682899629 1 1 0
134 67 1 0 99.47219816936206 102.84031329078707 97.35155549603728 1 -1 0
172 92 2 0 98.43972821986678 102.93996953168885 99.63165817533084 -1 0 0
92 46 1 0 98.60045457832895 102.7195364504685 98.00287708731294 1 1 0
17 9 1 0 98.15734110558418 100.24331364430341 99.06604468968673 0 -2 0
97 49 1 0 98.11125738210208 100.38100578687191 97.92834858892797 0 2 0
165 85 2 0 99.40322904109892 102.47821857459341 99.63156866294902 -1 -2 -1
38 19 1 0 98.00356953696617 101.30819108228526 99.03395031019606 1 1 -1
115 58 1 0 97.5217564205755 102.3599858374436 99.8669718036811 0 1 0
141 71 1 0 98.89404761629966 102.0666955864641 98.75043237573573 0 1 0
193 113 2 0 99.35850730742497 101.84563488018634 97.62660116439656 1 -1 -1
140 70 1 0 99.51077849166026 100.54076075950813 97.02396298494997 -1 0 0
88 44 1 0 99.55382631007356 101.33962813854302 99.27303050247252 0 0 0
139 70 1 0 98.55669859682446 101.18561828926738 97.275625438976 -1 0 0
142 71 1 0 98.0454828773686 101.76081104490534 97.99982238680408 0 1 0
81 41 1 0 98.81321991247887 101.06153507289571 98.37531472220557 1 0 0
82 41 1 0 99.29313961331623 100.25715813127037 99.13633318869644 1 0 0
197 117 2 0 97.35137505778867 101.06484301497012 97.57735357413357 -1 -2 0
56 28 1 0 99.911706641085 102.13277315184371 98.63642055046249 -1 -2 1
168 88 2 0 98.60151415499027 101.87326553025953 99.70983926455891 -1 0 1
106 53 1 0 97.17427772511827 100.36136457913072 98.45123819115321 2 -1 0
153 77 1 0 99.9096933835226 101.16007145931776 98.17760439624446 -1 -2 -1
162 82 2 0 97.09864913431436 100.67018066532438 99.43651527281983 0 -2 -1
51 26 1 0 101.26216228409652 101.38945439481112 97.57399366568353 -1 0 -1
196 116 2 0 100.8595786524437 102.5924855458585 98.71325210563413 2 0 1
52 26 1 0 100.81866952353552 101.52509718794803 98.68371180259946 -1 0 -1
198 118 2 0 101.30080189067967 100.43557486994358 98.30511600266014 0 -1 2
54 27 1 0 102.17701047695533 100.74747845137989 97.65822385911592 -2 1 0
174 94 2 0 102.8661073300205 101.89154410583508 98.14929783750418 1 0 1
72 36 1 0 102.18476394449286 101.86417250763539 97.3461104246964 2 -1 1
13 7 1 0 100.45859374659506 102.04457360298524 99.58329954031305 0 0 2
71 36 1 0 101.7450463256428 102.235974391843 98.36481480241329 1 0 1
7 4 1 0 102.12976423619115 100.11637366534113 98.94706677887594 -2 0 -1
194 114 2 0 101.61429855023277 102.00978776903195 99.42835446439508 0 1 0
75 38 1 0 100.44470284980626 102.10620101456632 97.71425344018803 -1 0 1
8 4 1 0 102.1696733838514 101.24517296067576 98.63721817806147 -1 -1 -1
44 22 1 0 102.7266338141162 102.58236175720991 99.0256104368889 0 -1 0
154 77 1 0 100.40165235741472 100.30517680815701 97.5766940497681 -1 -2 -1
79 40 1 0 100.35102703584418 100.59332970775672 99.00530342426742 -1 -2 0
95 48 1 0 102.74422770871152 101.6558416789517 99.5463931203635 0 -1 -1
122 61 1 0 101.36590038073578 100.92283749980527 99.39743231314574 -1 0 0
156 78 1 0 98.42711690139463 102.18009262037893 97.04795463734082 0 -1 2
58 29 1 0 97.30474565337474 101.9529333880423 97.04308491880234 -2 0 1
37 19 1 0 98.7585510170868 100.8774414047469 99.88366030161703 1 1 -1
185 105 2 0 97.73200383937376 98.94217741352546 101.64366253455718 1 0 -2
59 30 1 0 97.90554791347085 99.10582367103855 100.43466397617185 0 0 2
31 16 1 0 98.36153223329184 98.25744039308688 101.10705403110939 2 -1 -2
163 83 2 0 98.92563735829513 98.7367508005521 100.23066352381188 2 1 -2
32 16 1 0 98.625930825647 99.39734533664782 101.16168668579577 0 1 -2
145 73 1 0 99.44100831204186 97.77241413857705 102.60403323580955 -3 4 2
9 5 1 0 99.46959332949233 99.74022879883321 100.55514957541065 0 1 0
148 74 1 0 97.4987317407381 97.84973436836857 101.6296039847845 0 -1 -2
100 50 1 0 98.53201661398393 99.16663851158401 102.27127933298958 1 0 -1
77 39 1 0 97.3893894725369 99.85835314753825 101.08946485897694 1 0 -1
28 14 1 0 97.4668555659306 97.61146018159405 102.81611594749238 -1 1 0
151 76 1 0 99.22011311794016 97.77329021995901 101.55861687040193 -1 1 0
192 112 2 0 98.39794061939833 97.98987978683203 102.18850308888679 -1 1 -2
24 12 1 0 98.37730423293097 97.14995008668633 101.46250253679626 0 1 -1
181 101 2 0 98.74679329976392 97.5512052500835 100.47801702917249 -1 2 -2
47 24 1 0 99.25394364410755 99.89487885205745 101.90478164232334 0 0 -1
132 66 1 0 99.67590158840937 98.8136151117863 102.37393086774865 -1 -1 -1
131 66 1 0 99.60963914098774 98.79470783742876 101.1935496159008 -1 -1 -1
135 68 1 0 97.1879796789167 98.36972366747474 100.79184445094883 1 1 0
138 69 1 0 99.7524761003314 97.81480543505553 100.70263776679755 -2 0 0
83 42 1 0 99.91362337603844 102.95178875523995 101.78136172589262 1 -2 0
35 18 1 0 99.93808390997273 98.7018859305013 100.12763903062212 0 0 -1
116 58 1 0 97.71720766451958 97.40944057648292 100.54009139356724 0 2 0
2 1 1 0 97.49902404073356 99.40624159432463 102.56012270093557 2 -2 0
27 14 1 0 102.9187701090237 98.47546874440425 102.3294932178595 -2 1 0
129 65 1 0 102.58637992902047 97.43296441450092 100.87398642076063 2 0 -1
200 120 2 0 100.23362769988609 98.00105162338711 101.9124756397514 0 0 -2
147 74 1 0 102.31546408987124 98.20542004536229 101.50468425884644 -1 -1 -2
78 39 1 0 102.54678506704049 99.33602783161811 101.84945954442613 0 0 -1
137 69 1 0 100.7451947472712 98.38781885241582 100.91052731854671 -2 0 0
84 42 1 0 100.50211004705523 97.38354619652493 102.76509283234158 2 -2 0
86 43 1 0 100.50629874634195 99.09129807042541 101.76673733681372 1 1 1
130 65 1 0 102.15896663509506 98.53675271779578 100.45769090664024 2 0 -1
160 80 1 0 101.30007796803267 98.02593396362941 101.85620817452694 1 -2 2
190 110 2 0 101.62854170321346 99.5989996349885 100.50638663679787 2 -3 0
159 80 1 0 100.67227481360074 97.36540827509575 101.12077995276253 1 -2 2
150 75 1 0 101.74571177308061 97.27210968181902 102.56908455919415 0 1 -1
10 5 1 0 100.60906371492447 99.38678050398198 100.65314642185373 1 0 0
180 100 2 0 101.94173854498999 98.76666218931034 102.49060949668865 1 -2 1
25 13 1 0 101.14987441448902 99.90448424805766 101.40845849681261 -1 -2 0
19 10 1 0 102.7005205834523 97.29605365923766 102.05334420205071 0 -1 0
62 31 1 0 101.5691609769159 98.95448122907938 101.41776880460316 1 -1 -2
26 13 1 0 102.29492120443214 100.11050170497305 101.17523924464291 -1 -2 0
177 97 2 0 101.46475494380101 97.72162565883964 100.45314955016498 1 0 0
61 31 1 0 101.22211690792015 99.54383301123212 102.4189425019261 1 -1 -2
68 34 1 0 100.22301820366557 102.93050571264345 100.2384506630954 0 0 -1
136 68 1 0 102.71041055319594 99.47054566791144 100.29160697162018 0 1 0
179 99 2 0 100.23086025762396 99.91628353107109 102.47431381383672 -3 2 -2
20 10 1 0 101.7156687473303 97.19202254852895 101.43566098820426 0 -1 0
69 35 1 0 102.24202436533972 99.83489954597061 102.88409691606508 1 -1 1
63 32 1 0 97.70331088574318 100.03319010780731 100.03106661892669 -1 0 -2
23 12 1 0 98.2736541018715 102.40076472971946 100.55485077876439 0 0 -1
169 89 2 0 98.9796166551246 102.71066392280606 102.25506275406356 0 -3 0
1 1 1 0 98.07945460221146 100.10377946030752 101.8382138825103 1 -1 0
195 115 2 0 97.44334704589593 102.67484420093068 101.28307995965031 -1 0 1
189 109 2 0 97.68216647771958 102.68694033012457 102.34380054400036 0 -1 2
64 32 1 0 97.7677075760555 101.20397431008595 100.1395858529236 -1 0 -2
155 78 1 0 98.29392080122498 102.02608448459318 101.79023711739134 0 -1 1
70 35 1 0 101.21406261368858 100.48774960207027 102.8926637617061 1 -1 1
46 23 1 0 98.68870142420484 100.94265668480219 101.80658680903699 -1 -1 0
171 91 2 0 97.73574505685917 101.05860976890325 102.52420371540161 -1 1 2
48 24 1 0 98.51638113421532 100.20570202771405 102.76391834242573 0 0 -1
45 23 1 0 98.3073836932617 100.39098915522875 100.78723076443734 -1 -1 0
117 59 1 0 98.5851052884703 101.45668266762706 100.8306476300522 -1 0 1
103 52 1 0 99.28184267289706 101.61262164354963 102.51516932366557 -1 -1 0
34 17 1 0 99.72649810451138 100.82423295972512 101.97167340052856 2 0 -1
170 90 2 0 99.33000237223045 100.73424043766424 100.99357274958386 0 1 0
87 44 1 0 99.57067963514419 101.76125453469996 100.4175130674077 0 0 0
118 59 1 0 97.57873454430612 100.98595442373474 101.33981457084957 -1 0 1
96 48 1 0 97.1267100135011 101.82814240560423 100.72557598398102 1 -1 -1
152 76 1 0 99.26680361250861 102.70341458457375 100.87200535828913 -1 0 0
33 17 1 0 99.39946576406957 101.87028172322204 101.47097287214636 2 0 -1
39 20 1 0 97.18394100018004 101.83792060566205 101.84302615691938 -1 -2 0
101 51 1 0 102.40215475415381 102.54661496572623 100.10363101136335 1 -2 0
173 93 2 0 102.25916788724915 102.25446340125575 102.26606563345204 -2 1 0
80 40 1 0 99.90255976988043 100.77664643838874 100.08551492051814 -1 -2 0
12 6 1 0 100.05887794210678 102.34960011860744 102.66076805238548 1 -2 0
102 51 1 0 101.33150998430249 102.5211402151688 100.52739334941113 1 -2 0
164 84 2 0 101.89286670785812 100.4560357520933 102.05980076418305 -1 0 2
104 52 1 0 100.36800128558471 101.68311055644962 101.93104680202217 -1 -1 0
85 43 1 0 100.11360366644246 100.08967453690985 101.30686327193756 1 1 1
186 106 2 0 102.89575650609974 100.6595840174786 100.53165191385706 -3 0 -1
161 81 2 0 97.02549468519501 100.37427578884686 102.10533729587554 0 1 -1
121 61 1 0 100.90240296146314 101.47111741356815 100.3420958736164 -1 0 0
53 27 1 0 102.61884921858947 101.21768040772893 102.59175216239561 -1 0 -1
3 2 1 0 101.47840603869145 100.81814646656854 101.00735709961398 -1 0 0
89 45 1 0 100.2937506447908 101.06551191764672 101.07763789726853 -2 1 -1
182 102 2 0 100.36436512530372 102.23850765821723 100.99400923394678 -1 1 -1
40 20 1 0 102.28555217304502 102.31763362822986 101.13062578684855 -2 -2 0
66 33 1 0 101.37633646078805 101.83699964922286 101.36631520722787 -1 -1 -1
42 21 1 0 100.75709048082552 100.71795165174953 101.9637172072828 0 -1 0
125 63 1 0 102.34425165262216 101.25393453172815 101.46532373170963 -1 -1 -1
65 33 1 0 102.0706976170616 101.52781522003491 100.38263263120781 -2 0 -1
175 95 2 0 100.94998667865173 102.67138850091742 101.89036341628541 3 -2 -2
126 63 1 0 101.46925190031595 101.41866854228961 102.37279593137441 -2 0 -1
149 75 1 0 101.07402355691812 98.2358784269018 102.95412563998724 0 1 -1
4 2 1 0 102.02268106888764 100.42191666655744 100.02558391266979 -1 0 0
90 45 1 0 100.82964887726669 100.39462494297535 100.25702974100888 -2 1 -1
11 6 1 0 101.1932138404912 102.29499697767261 102.9269937789505 1 -2 0
41 21 1 0 100.31852184010046 101.30994400431105 102.93725155851413 0 -1 0

Velocities

109 -0.22712928270264995 -0.2375734427627859 0.028824398549504998
183 -0.2093713869567455 0.01688674503571856 0.10808066828128159
166 0.15042116214198778 0.41470718777886056 -0.054314694944259195
18 -0.06298390109455528 -0.7634617600460208 0.38819981721350194
16 -0.2956629238713493 0.12794631066060178 -0.6012658746306953
98 -0.40653564035781264 -0.3453501520686574 0.011749468076776529
167 0.18083853449332468 0.6111289365919478 0.18493843492255088
112 0.14192583809413248 0.2151662259458332 -0.20269187480253265
133 0.4819946477083872 -0.04390245931464634 0.15059387559253798
111 -0.023667247589599504 0.5627590090913562 -0.03957841498682655
124 -0.1515384876933407 -0.03863011622607415 -0.6693920261755966
119 -0.608273616068548 -0.16095655676843304 -0.37267468150008526
158 -0.19946669414541734 0.28848296927791384 -0.07757720735918051
110 -0.033476538130967896 0.311482403619446 0.4645323777655688
123 0.47030242235880304 0.26815158064107564 -0.19311627977701495
144 -0.5444054475169824 0.3251499910160065 0.2973712064095109
43 0.8509755719439779 -0.18800335294322298 0.3063151147425998
157 -0.49742587235301944 0.36757920702432856 -0.13715384217588958
60 0.13701389912757342 -0.4937395250538793 -0.18232261106787404
15 -0.14793729461590002 0.08283106348034641 0.3955412027007478
67 -0.3363355666710397 -0.19097488460989664 0.0855979794799828
191 -0.009080497255598062 -0.16116943008454543 -0.3940660871637782
146 0.5020961262261457 0.1432228719752526 -0.25643105714550074
99 -0.5119606828681177 0.15506720768005167 0.007119210744324115
127 0.05590688104521792 -0.32733070434700234 0.17437943581038404
55 -0.30885593842837966 -0.0461054336575689 -0.12999300128842317
184 0.4258596819299984 0.3065148518410087 0.16508411432066553
76 0.03873288827539597 -0.3111871998114446 0.02127943492228797
176 -0.7097926825819072 -0.21001100624304403 -0.06510831858640363
199 -0.08700370704009465 0.2327001393186881 -0.3088585915165717
105 -0.3781491632585853 0.012632962574166498 0.31057057011349165
74 0.3183475006151399 0.0759111155216888 0.032357236115158616
30 -0.08084652937237298 -0.24333427147627232 0.5704713338378592
73 0.04959537342273567 -0.013111392775621393 0.6400064188044364
108 0.29171146022770617 -0.29652024315765724 -0.06293256736671289
113 -1.009111804109054 -0.0774614724179438 0.41864953790893084
93 -0.4756288431149346 0.17296049787297396 -0.08382147301678568
178 0.2189954586035317 -0.17878851064858448 -0.013820118596254458
5 -0.15251300643879012 -0.6884955562655474 -0.21433208020162192
29 -0.29082429524061676 0.46895868788059086 0.33708988077597934
114 -0.5548098037510738 0.4461290492394281 0.08661611943156844
107 0.06444760895899505 -0.15320402021537347 -0.3876669593154963
49 0.10679249220179708 -0.0566099606295073 0.052743107426746615
6 0.8028729873687653 -0.15205611507616565 0.08686683577738533
94 -0.03142082973988889 0.31834544077191096 0.2072819421034794
120 0.4072145941511541 0.3658021211778519 -0.16964957524729304
22 0.34208912591673973 0.4666899891850627 -0.3757213548410158
36 0.07424843637920626 0.39188077747893685 0.04967437580883452
128 0.15690771883362312 0.42020720888057184 -0.3036785880460868
21 0.13141359028049746 0.28953019828507426 0.3211894812376944
50 -0.30753945760253565 0.3477091174148422 0.19360930011448996
14 0.032354335209465256 0.07724223134797213 0.32008731210266655
57 -0.7503177126133179 -0.2553317242028864 -0.6498987651512046
187 -0.03625226321130067 -0.1841776765134758 0.05249518050592117
188 0.38526364257199314 0.036672561465420785 -0.3581451470122291
143 0.05917523971882334 -0.17911855876449595 0.05629424412925425
91 -0.01995024698438231 -0.3931140001740025 0.24113590166237103
134 0.15939542329784873 -0.07667971191955375 -0.22485274746391926
172 0.2687141174877063 -0.32882012064404614 0.2271653390173692
92 -0.03285393974977654 0.5790045024575861 -0.11129866318503136
17 0.14735793333920325 0.2975607134619236 0.0200610994189333
97 -0.046328743024981155 -0.18369899382242985 0.28277888831275416
165 0.07854649007380021 -0.47910638846842457 0.034084509001603716
38 -0.09121680837564292 0.274173220507856 -0.1071395727711347
115 0.6063012843199392 0.2100304926957266 0.3760631362825665
141 -0.08545926023111625 0.18921809763088013 0.2704020597047906
193 0.4374908722633448 0.06681064894478067 0.05070825477292431
140 -0.30711692704728044 0.0017290402240966718 0.0112284699810585
88 -0.22012575959778619 0.12180496043587592 -0.16250467404840604
139 0.003014350388006158 0.31590188865882324 -0.26421410510807347
142 0.06536485264602752 0.12911360580434977 -0.013293334313881761
81 -0.22768045831771774 -0.33568625305533184 -0.12916192711285326
82 0.33351351130389273 -0.17543216089288324 0.28890358545686473
197 -0.0693250289113222 -0.27932359606902535 0.05176386665606451
56 -0.12153281041326047 -0.004467660023235409 0.48899683520185794
168 0.1639015375997669 0.10345305490123 0.11353618331792635
106 0.06761334164374129 -0.4376257755160133 0.2286164838830133
153 -0.22633629346535564 0.13152964698405673 0.2882250124346659
162 -0.5803585573232386 -0.1906701967484266 -0.04033847394052639
51 -0.27159798448349254 -0.13247511259528114 0.45596463875675886
196 -0.29024878651629765 -0.07800758716888857 0.4804260685050788
52 -0.19808297552911674 0.2995865736281002 0.24127787496395992
198 0.16494959512355784 0.44621340515268704 -0.18028312059318946
54 -0.022238764183919513 -0.33623988433716506 -0.3257005528883001
174 -0.13628043482726335 -0.6800279659769596 -0.0407966456527095
72 0.4770149851422602 -0.051802396828283005 0.2133512212115665
13 -0.14615200293569838 0.3086679210293312 -0.2040646783788068
71 0.45301175073746186 -0.03286033402229392 -0.0413492274440631
7 -0.5377879907249924 0.6448989934861603 -0.15751065055946475
194 0.3760481619708099 -0.2103416827996028 -0.03572758646295574
75 -0.29550557701960256 0.26014169446803753 0.23822395808147778
8 -0.20872683934022723 0.032705455326885735 0.29035550581958064
44 -0.1617288272195268 -0.22709959304121383 -0.41880863461925233
154 -0.15674456540297915 -0.14003201441778723 -0.5928507905131497
79 -0.08404614434638515 -0.4429902128803631 -0.09202275286209288
95 0.25309979080952577 0.6127495410664996 0.10044460377747852
122 -0.2721653469410288 0.015047796259595288 0.450853418977569
156 -0.4282082634720194 -0.10678642808414224 -0.400528441846052
58 0.37482898062809467 0.6030025287632437 -0.16658918517734048
37 -0.5864506823296988 -0.3531676661957322 -0.07082517786794076
185 -0.2841603621019442 0.14750393618057853 -0.4169994383763105
59 -0.18262210283867347 0.1530831869315866 -0.05447988027237665
31 0.8565444599247342 -0.12779597755013888 -0.12636228439405595
163 0.45997835344519855 -0.2791762017156863 0.5038699368769334
32 0.32704087199583776 0.245601471689028 0.2094786978886077
145 0.21058463862683127 0.34799014977209075 -0.23699928566916684
9 -0.14033327126904976 -0.5683846293169885 -0.07821917109270801
148 0.4306347834451164 -0.42892279896837626 0.4155471130280006
100 0.41059737634319793 -0.7053706560362009 -0.34364971758696006
77 -0.09161640630179928 0.24929240468781186 0.15894515666225786
28 0.13223674390249165 0.5260814786551571 0.9887858494993328
151 -0.07750059668690562 0.14057758633196593 -0.06857062603069423
192 0.06778562100798892 0.1345667202666813 -0.09949988850636922
24 -0.00794534005563212 0.27184808502032326 -0.4529690732781023
181 -0.3375524193323916 0.1792944191127723 0.005724200176555814
47 0.3343836967468318 0.04021586393228705 -0.017441799072549127
132 -0.07594098556964336 0.04285128943785043 0.3314797427556988
131 -0.02312615528380259 -0.03481736305057944 -0.43505354450376915
135 -0.5021405575694731 0.5586149245510355 -0.32312717852316447
138 0.09174118178691457 0.4397240452865011 0.15238517469195959
83 -0.08414304443926592 0.17844085546799118 -0.40632765000648424
35 -0.1479574039191652 0.054342862564969785 0.4532181505284986
116 0.2860457453726729 0.03250415697050496 -0.2654193559360575
2 -0.21732595465360413 -0.1453179240511753 -0.011701148041517253
27 -0.09518636433289306 -0.09510393443366819 -0.08104625521179357
129 -0.04665774856216263 0.04525491396411129 -0.08192474974968368
200 -0.10388190342601428 -0.0016300477830144683 -0.07651549551169456
147 0.15396929937087617 -0.10851616991482935 0.3015210392600525
78 0.004949087869673111 0.02590046214718724 -0.004867984872950438
137 0.10358110392036417 0.09388179237773814 0.5799775638816179
84 -0.18075024475217688 -0.08059935918026613 -0.19021541772914494
86 0.29266599214775235 -0.27644237803429034 -0.4702156133287794
130 -0.2807973663342398 -0.5427482596337171 -0.2970373060470009
160 -0.4644860193646316 0.4915907813479985 0.4142926356362519
190 -0.48551929350635875 0.12339912699614812 0.08329973073920083
159 0.5032931149509728 -0.15399605878713113 0.36126442225496125
150 0.08087066365806338 -0.04269973617397967 0.7519106955973787
10 -0.10315417875432353 -0.18025756004268614 0.029135769760212645
180 -0.2716786271876478 -0.04352289688688096 -0.35958390986955546
25 0.6650755087193337 -1.0535985843169182 -0.00813726412347975
19 0.04271221356560838 0.05571298657671892 -0.338329827661366
62 -0.1595625670190308 -0.16314429456167862 -0.3525324986487954
26 0.3842234357684005 -0.004437776632060287 -0.39861606074879236
177 0.19760746982067956 -0.445075981716077 -0.1713682991836791
61 0.08276746818273956 0.11719921581738048 0.49181828867295635
68 -0.35151712871496843 -0.12138455766655729 -0.10438452981869194
136 0.2788220487752296 -0.01834257329856568 0.09260186764235799
179 0.199913830868618 -0.06945175043056323 -0.2605602754235602
20 0.18870991333480258 -0.14491468810729394 -0.06771303575827124
69 0.06259259548726945 -0.2273301025394211 -0.03559635612035098
63 0.05813112354117838 0.5433528224855784 0.03269432834181352
23 -0.7634628002099183 -0.5598829861477284 0.6371338786431494
169 -0.05890201261211222 -0.037169136901965306 0.13687898658916076
1 -0.09885447396560376 -0.4392694230986051 -0.42656246145913007
195 0.04358601631947394 -0.3252392368571691 -0.10487536161102642
189 0.2731739338664354 0.30001458369084233 -0.07675474422582804
64 0.11570615476028677 -0.2064073729127885 0.013209914555579782
155 -0.04910187291921688 -0.44500250644707856 0.03483515663787222
70 0.3088228875005875 -0.09633761560017788 0.1075950245313427
46 -0.28601111470636525 -0.3315569102911999 -0.32202794761939413
171 0.09717952089945289 0.2780054930914032 -0.04731948014394012
48 -0.06981195181700271 -0.3839242281741833 -0.2554759210286902
45 0.0647618012252853 0.14036025038149522 -0.10656743996872031
117 0.08029143389403917 0.0383588266169467 0.2780236932088323
103 0.4930221339538516 -0.44821402516024605 -0.3404086986941591
34 -0.22610389680140824 -0.5174220165557858 -0.2698505422692919
170 0.23548653871490008 0.43910786705373234 -0.2614266167276165
87 0.04536661515322235 0.5772427907046727 -0.04276537220462705
118 0.06666146565456349 0.23580348379554586 0.18550912473923173
96 0.0068976846478984895 0.145278784504907 0.4937166872690022
152 0.1310206402168692 0.4965227734149452 0.12981848140817584
33 0.2711561577780333 -0.050795254853108214 0.008388504092987928
39 -0.09941570625820226 -0.08112995697939324 -0.12318395851761227
101 -0.12352301901159053 0.6249150344940613 0.1437751992294777
173 -0.015750022579257037 -0.1748059531366834 -0.2920530543451981
80 -0.12098266243804885 -0.19332568117837753 0.12130937011541723
12 -0.3788848939645761 -0.03841901778010853 -0.022179149497295995
102 -0.24033143724905193 -0.46748820368954197 0.019897149072591047
164 0.06403155520970968 -0.13039154362726713 0.00018676070046598798
104 0.05103112779130376 0.027948523956983665 0.6588201924297759
85 0.2977531163764835 0.295117333242275 -0.3955714629526962
186 -0.4287686634378018 -0.13087012598074982 0.08249930810293228
161 0.134483459005394 0.5193787460893962 -0.41134423608997034
121 -0.07818228654424626 -0.07115899474375975 -0.22991876953325505
53 0.458525136528695 0.23879549926399946 -0.1703409568553663
3 0.30715091299470015 -0.18339980930100305 0.16564915020971932
89 0.4599239242379504 0.17120795345433232 -0.45833772281965507
182 -0.5047314158937777 -0.4890862539008048 -0.1481615046451016
40 0.6750754947533393 0.14371713781383114 -0.40138701312868824
66 -0.01609527815292788 0.5050128248993407 -0.3851775323876666
42 0.3148831105036256 -0.04950087795844987 0.1579267700315575
125 0.26291488361685783 -0.1406280442280552 0.1618708425779718
65 0.1156380799409059 -0.08400268268148636 0.43977519980392293
175 0.2722048667460957 -0.20500705704632924 0.11940309228660144
126 0.18327391550106564 0.1887325802595053 -0.39415454779152326
149 -0.5465572021574149 -0.44235339510884125 0.28733930488926923
4 0.1370671488230195 0.34445107845604467 0.2563897398978723
90 -0.210999104494232 -0.18513565605723434 0.39449227649626073
11 -0.5490534298161236 -0.23068357790251195 -0.11722106227555198
41 0.5225329886085582 0.43981748309039187 0.06892013745393293

Bonds

1 1 109 110
2 2 183 157
3 2 166 16
4 2 166 18
5 2 166 63
6 2 166 98
7 2 167 76
8 2 167 113
9 2 167 123
10 2 167 133
11 1 133 134
12 1 111 112
13 1 119 120
14 1 123 124
15 1 43 44
16 1 157 158
17 1 15 16
18 1 67 68
19 2 191 112
20 2 191 135
21 2 191 31
22 1 99 100
23 1 127 128
24 1 55 56
25 2 184 5
26 2 184 35
27 2 184 80
28 2 184 82
29 2 176 15
30 2 176 74
31 2 176 109
32 2 176 127
33 2 199 61
34 2 199 149
35 2 199 154
36 2 199 158
37 1 105 106
38 1 73 74
39 1 113 114
40 1 93 94
41 2 178 6
42 2 178 73
43 2 178 94
44 2 178 105
45 1 5 6
46 1 29 30
47 1 107 108
48 1 49 50
49 1 21 22
50 1 57 58
51 2 187 81
52 2 187 99
53 2 187 124
54 2 187 140
55 2 188 28
56 2 188 146
57 1 143 144
58 1 91 92
59 2 172 43
60 2 172 111
61 2 172 116
62 2 172 91
63 1 17 18
64 1 97 98
65 2 165 13
66 2 165 55
67 2 165 68
68 2 165 88
69 1 115 116
70 1 141 142
71 2 193 41
72 2 193 56
73 2 193 92
74 2 193 141
75 1 139 140
76 1 81 82
77 2 197 139
78 2 197 106
79 2 197 54
80 2 168 64
81 2 168 87
82 2 168 115
83 2 168 117
84 1 153 154
85 2 162 4
86 2 162 7
87 2 162 17
88 2 162 38
89 1 51 52
90 2 196 29
91 2 196 50
92 2 196 75
93 2 196 93
94 2 198 79
95 2 198 122
96 2 198 8
97 2 198 51
98 2 174 44
99 2 174 71
100 2 174 142
101 2 174 21
102 1 13 14
103 1 71 72
104 1 7 8
105 2 194 14
106 2 194 52
107 2 194 95
108 2 194 102
109 1 75 76
110 1 79 80
111 1 95 96
112 1 37 38
113 2 185 1
114 2 185 27
115 2 185 59
116 2 185 78
117 1 59 60
118 1 31 32
119 2 163 9
120 2 163 32
121 2 163 60
122 2 163 67
123 1 145 146
124 1 9 10
125 1 77 78
126 1 151 152
127 2 192 100
128 2 192 119
129 2 181 23
130 2 181 151
131 1 47 48
132 1 131 132
133 1 135 136
134 1 83 84
135 1 35 36
136 1 27 28
137 1 129 130
138 2 200 86
139 2 200 131
140 2 200 137
141 1 147 148
142 1 137 138
143 2 190 90
144 2 190 107
145 2 190 128
146 2 190 130
147 1 159 160
148 2 180 147
149 2 180 160
150 2 180 62
151 2 180 120
152 1 25 26
153 1 19 20
154 2 177 20
155 2 177 30
156 2 177 36
157 2 177 49
158 1 61 62
159 2 179 34
160 2 179 70
161 2 179 85
162 2 179 132
163 1 69 70
164 1 63 64
165 1 23 24
166 2 169 12
167 2 169 103
168 2 169 134
169 2 169 145
170 1 1 2
171 2 195 19
172 2 195 129
173 2 195 148
174 2 195 155
175 2 189 24
176 2 189 57
177 1 155 156
178 2 171 39
179 2 171 46
180 2 171 48
181 2 171 118
182 1 45 46
183 1 117 118