LAMMPS (23 Jun 2022)
OMP_NUM_THREADS environment is not set. Defaulting to 1 thread. (src/comm.cpp:98)
  using 1 OpenMP thread(s) per MPI task
Reading data file ...
  orthogonal box = (0 0 0) to (200 200 200)
  1 by 1 by 2 MPI processor grid
  reading atoms ...
  200 atoms
  scanning bonds ...
  1 = max bonds/atom
  reading bonds ...
  80 bonds
Finding 1-2 1-3 1-4 neighbors ...
  special bond factors lj:    0        0        0       
  special bond factors coul:  0        0        0       
     1 = max # of 1-2 neighbors
     0 = max # of 1-3 neighbors
     0 = max # of 1-4 neighbors
     1 = max # of special neighbors
  special bonds CPU = 0.000 seconds
  read_data CPU = 0.004 seconds
Generated 0 of 1 mixed pair_coeff terms from geometric mixing rule
Neighbor list info ...
  update every 1 steps, delay 0 steps, check yes
  max neighbors/atom: 2000, page size: 100000
  master list distance cutoff = 5.5
  ghost atom cutoff = 5.5
  binsize = 2.75, bins = 73 73 73
  1 neighbor lists, perpetual/occasional/extra = 1 0 0
  (1) pair lj/cut, perpetual
      attributes: half, newton on
      pair build: half/bin/newton
      stencil: half/bin/3d
      bin: standard
Setting up Verlet run ...
  Unit style    : lj
  Current step  : 0
  Time step     : 0.002
Per MPI rank memory allocation (min/avg/max) = 7.1 | 7.1 | 7.1 Mbytes
   Step          Temp         Density         PotEng        Enthalpy        Press           Pxx            Pyy            Pzz            Pxy            Pxz            Pyz             Lx             Ly             Lz             Xy             Yz             Xz          Density    
         0   1              2.75e-05       2.2913944e-28  2.4875         2.4875e-05     2.4540872e-05  2.7057051e-05  2.3027077e-05 -8.5634887e-07  1.0219777e-06  4.891355e-07   200            200            200            0              0              0              2.75e-05     
       100   2.5460664      0.0002083798   4.841812      -3.0569475     -0.0022161691  -0.0064440926  -9.141549e-05  -0.00011299913 -0.00011421515  0.00013729396 -2.0091235e-05  101.8253       101.8253       101.8253       0              0              0              0.0002083798 
       200   4.2636155      0.00048094574  1.6510911      17.20289       0.004017363    0.0058413836   0.003362474    0.0028482312  -4.2611733e-05 -8.590852e-05   7.8724368e-05  77.050513      77.050513      77.050513      0              0              0              0.00048094574
       300   3.4103468      0.0008325356   0.10395076     9.1534798      0.0029968152   0.0036031758   0.0028697101   0.0025175596  -3.3896346e-05 -8.0626597e-05  5.1188214e-05  64.17117       64.17117       64.17117       0              0              0              0.0008325356 
       400   2.6546566      0.0012518405   1.5396026      0.87825993    -0.0052616197  -0.0047342777  -0.0058824298  -0.0051681516  -0.00041448717 -0.00027461537 -0.00021349652  56.013308      56.013308      56.013308      0              0              0              0.0012518405 
       500   1.8146743      0.0017357838   1.6595462      11.416051      0.011121803    0.010038241    0.012941903    0.010385265   -0.00051269847  0.00064738346  0.00020019117  50.231446      50.231446      50.231446      0              0              0              0.0017357838 
       600   1.889441       0.0022800023   0.34913499     2.2656936     -0.0018725701  -0.0020802342  -0.002362579   -0.0011748972   0.00015176939 -0.0004410472  -0.0001424149   45.866521      45.866521      45.866521      0              0              0              0.0022800023 
       700   2.0031954      0.002874402    0.25558262     2.6265021     -0.0016171113  -0.00079875477 -0.0019462646  -0.0021063145  -0.00043418795 -0.00047100713  5.6907059e-05  42.457889      42.457889      42.457889      0              0              0              0.002874402  
       800   1.0049646      0.003528408    0.97242948     7.7856117      0.017043085    0.016010902    0.019751448    0.015366904   -0.0012639776   0.00139582     2.5768425e-05  39.653479      39.653479      39.653479      0              0              0              0.003528408  
       900   0.95541702     0.004228787    0.67677267    -1.4217167     -0.013549223   -0.013695236   -0.015925491   -0.011026942    0.0010575869  -0.0016904123  -0.00019074716  37.330943      37.330943      37.330943      0              0              0              0.004228787  
      1000   1.422757       0.0049742378   0.048797318    3.9829363      0.0081879309   0.0076378245   0.0099267963   0.0069991719  -0.0011544253   0.000435228    0.00024559295  35.364325      35.364325      35.364325      0              0              0              0.0049742378 
      1100   0.91186914     0.0057768102   0.35429445     5.4030187      0.019366807    0.021257653    0.020752467    0.0160903     -0.0017471527   0.0015089398  -0.00013876306  33.644302      33.644302      33.644302      0              0              0              0.0057768102 
      1200   0.67922959     0.0066113441   0.70179367    -2.3332668     -0.024334618   -0.029942874   -0.024898568   -0.018162413    0.0020416722  -0.0023344162   0.00039745453  32.164562      32.164562      32.164562      0              0              0              0.0066113441 
      1300   1.0073064      0.0074958285   0.25234115     4.9739113      0.021929832    0.024555301    0.023724841    0.017509355   -0.0024250831   0.0013251804  -6.1888816e-05  30.846153      30.846153      30.846153      0              0              0              0.0074958285 
      1400   1.0372299      0.0084297337  -0.0074124511   3.3586275      0.013931854    0.018576727    0.012319817    0.010899016   -0.0013721796   0.00031567531 -0.00054032091  29.662171      29.662171      29.662171      0              0              0              0.0084297337 
      1500   0.89442527     0.0093835048   0.41017013    -0.98846437    -0.023318557   -0.036323848   -0.018751894   -0.01487993     0.00294594    -0.0011689468   0.0026897849   28.62107       28.62107       28.62107       0              0              0              0.0093835048 
      1600   0.86108712     0.01039804     0.47192088     5.5576239      0.035925516    0.046204896    0.033770524    0.027801128   -0.0043050522   7.6549678e-05 -0.0014829895   27.658189      27.658189      27.658189      0              0              0              0.01039804   
      1700   1.0958095      0.011447221    0.053588624    1.4866994     -0.0021061326  -0.0036773246  -0.0016919502  -0.00094912303  0.00091666335  0.00087138322  0.0010170944   26.78598       26.78598       26.78598       0              0              0              0.011447221  
      1800   1.1781875      0.012515771    0.13119041     1.1367695     -0.0085660864  -0.019817812   -0.0011102426  -0.0047702048   0.0027772635   0.0018281404   0.0026284334   26.000899      26.000899      26.000899      0              0              0              0.012515771  
      1900   0.91747818     0.013650985    0.44820495     5.6125766      0.047096339    0.063173105    0.041077832    0.037038079   -0.0087085022  -0.0012971892  -0.0017279534   25.259198      25.259198      25.259198      0              0              0              0.013650985  
      2000   0.98741364     0.014801508    0.2806353     -0.12812817    -0.025330471   -0.037584375   -0.021071576   -0.017335461    0.0050883694   0.0044195126  -0.0007747708   24.587002      24.587002      24.587002      0              0              0              0.014801508  
      2100   1.2302201      0.015985687   -0.030637578    2.7474239      0.01368895     0.011186418    0.017907031    0.011973401   -0.0017079659  -0.0021965506   0.0011827186   23.964247      23.964247      23.964247      0              0              0              0.015985687  
      2200   0.96591657     0.017232042    0.19982138     4.7498815      0.048695083    0.066209876    0.039699297    0.040176075   -0.006849842   -0.0060631441   0.002843768    23.37197       23.37197       23.37197       0              0              0              0.017232042  
      2300   0.81614469     0.018476696    0.37833764    -1.0425288     -0.044326643   -0.067651671   -0.035245078   -0.030083179    0.0073502053   0.0075464768  -0.0032267396   22.834918      22.834918      22.834918      0              0              0              0.018476696  
      2400   1.0353682      0.019776759    0.055145427    3.80336        0.039606153    0.047022435    0.037134069    0.034661955   -0.0060412373  -0.0062005107  -0.0005766168   22.323169      22.323169      22.323169      0              0              0              0.019776759  
      2500   1.0170211      0.021123269   -0.030107349    3.4199246      0.037102599    0.04675445     0.030488485    0.034064863   -0.0017469754   0.0013318086   0.0016612259   21.838385      21.838385      21.838385      0              0              0              0.021123269  
      2600   0.86506472     0.022459071    0.25377003    -0.76470093    -0.047155474   -0.063120821   -0.03419391    -0.044151692   -0.0014488146   0.0059449112  -0.00056182415  21.396544      21.396544      21.396544      0              0              0              0.022459071  
      2700   0.9347007      0.023869643    0.17712388     4.4851027      0.063209809    0.072126216    0.057484809    0.060018402   -0.00566194    -0.014794306   -0.00036398725  20.966483      20.966483      20.966483      0              0              0              0.023869643  
      2800   1.0628982      0.025300489   -0.037681132    2.0669566      0.011920259    0.011188038    0.012298428    0.012274309   -0.0047167755   0.0033476081   0.003555686    20.563542      20.563542      20.563542      0              0              0              0.025300489  
      2900   1.0437299      0.026731245    0.096287593    0.25748268    -0.033938277   -0.034020179   -0.028713175   -0.039081477   -0.0042318521   0.0044888742   0.0018081115   20.189915      20.189915      20.189915      0              0              0              0.026731245  
      3000   0.97769719     0.028244791    0.20425073     5.0075163      0.085865513    0.096024824    0.074723204    0.08684851    -0.0035541481  -0.0026024387   0.0028082165   19.822637      19.822637      19.822637      0              0              0              0.028244791  
      3100   1.079758       0.029749752    0.017458057    0.92204123    -0.019119776   -0.030455909   -0.014936122   -0.011967296   -0.0019465408   0.00034190561  0.0039067563   19.482579      19.482579      19.482579      0              0              0              0.029749752  
      3200   1.1494442      0.031272365   -0.055579509    1.8138049      0.004373552    0.010607496    0.0092806908  -0.0067675307  -0.0011964109  -0.0015902456  -0.012733116    19.161109      19.161109      19.161109      0              0              0              0.031272365  
      3300   0.98605492     0.032880336    0.079111543    4.4008393      0.085191183    0.10568478     0.076979295    0.072909477   -0.0040942247  -0.0026336636   0.0028040887   18.843525      18.843525      18.843525      0              0              0              0.032880336  
      3400   0.95613748     0.034459108    0.04485727    -0.01081987    -0.046448131   -0.073307749   -0.040352929   -0.025683715   -0.0090799384  -0.0015148165   0.0056173465   18.551237      18.551237      18.551237      0              0              0              0.034459108  
      3500   1.0617994      0.036086912   -0.1459328      2.611693       0.038478166    0.040800234    0.041591321    0.033042942    0.005228424    0.0034835203   0.0002766802   18.267999      18.267999      18.267999      0              0              0              0.036086912  
      3600   0.97386201     0.037776803   -0.12419419     3.2265682      0.065157202    0.070157537    0.077041288    0.048272782   -0.0037178992  -0.00051859164 -0.00077492471  17.991436      17.991436      17.991436      0              0              0              0.037776803  
      3700   0.85511176     0.039433518    0.033572015   -0.041311462   -0.048436469   -0.045633347   -0.069237566   -0.030438494   -0.010359165   -0.0088740253  -0.0068991762   17.735865      17.735865      17.735865      0              0              0              0.039433518  
      3800   0.95649572     0.041165517   -0.11166808     3.0800095      0.066018551    0.07799546     0.063898622    0.056161572    0.0013865355  -0.00010251589  0.0073364547   17.483553      17.483553      17.483553      0              0              0              0.041165517  
      3900   1.0051624      0.042924235   -0.19934191     2.4225323      0.043769818    0.045663854    0.04795624     0.037689359   -0.0034722269   0.017078037    0.0023513032   17.241434      17.241434      17.241434      0              0              0              0.042924235  
      4000   0.95253481     0.044661746   -0.058119103    0.29500482    -0.043384188   -0.064489452   -0.032823646   -0.032839466   -0.0041362062  -0.0024503294  -0.0048782644   17.014884      17.014884      17.014884      0              0              0              0.044661746  
      4100   1.0004396      0.046495045   -0.089746941    3.3464143      0.082127372    0.094994315    0.082401205    0.068986598    0.0018625422  -0.0063912007  -0.0017966577   16.788246      16.788246      16.788246      0              0              0              0.046495045  
      4200   1.0837629      0.048315054   -0.19346588     1.6895301      0.011660616    0.0031563275   0.016980775    0.014844746    0.0027158355   0.0050583617  -0.0023569049   16.574741      16.574741      16.574741      0              0              0              0.048315054  
      4300   1.0870029      0.050137167   -0.15714316     1.3894771     -0.0034517907  -0.001912335   -0.00943761     0.00099457299 -0.0097328084  -0.010701764    0.0020089176   16.371468      16.371468      16.371468      0              0              0              0.050137167  
      4400   1.032108       0.052038928   -0.10697082     3.5605239      0.10062784     0.087646947    0.12929484     0.084941745   -0.01070171    -0.0027178557  -0.018767023    16.169557      16.169557      16.169557      0              0              0              0.052038928  
      4500   1.006569       0.053914598   -0.12576593     0.96877081    -0.019986017   -0.014558497   -0.031616981   -0.013782573    0.0044190046  -0.005294975    0.012743813    15.979828      15.979828      15.979828      0              0              0              0.053914598  
      4600   1.0329257      0.055842706   -0.20770791     1.6793202      0.017533926    0.024377161    0.012338981    0.015885636   -0.0037103643  -0.0040006821   0.0022131851   15.793755      15.793755      15.793755      0              0              0              0.055842706  
      4700   0.96207118     0.057828284   -0.16525663     2.8741775      0.084300121    0.069864334    0.092832964    0.090203065   -0.0067258648  -0.0012369379  -0.017309249    15.610883      15.610883      15.610883      0              0              0              0.057828284  
      4800   0.92404131     0.059787795   -0.14250608     0.98841522    -0.013490863   -0.025458009    0.00012407938 -0.015138659    0.019589578    0.0022892182   0.01824043     15.438439      15.438439      15.438439      0              0              0              0.059787795  
      4900   0.9722108      0.061791752   -0.21718053     1.6969646      0.026015478    0.039587673    0.036735199    0.0017235626  -0.0010258514   0.012265768   -0.010557932    15.269708      15.269708      15.269708      0              0              0              0.061791752  
      5000   0.95797754     0.063862538   -0.21045141     2.5810119      0.079054964    0.089732871    0.075612237    0.071819784   -0.0046345623   0.00049588772 -0.0024672465   15.102847      15.102847      15.102847      0              0              0              0.063862538  
      5100   1.0025215      0.065900045   -0.26042647     0.83179676    -0.024205695   -0.027290484   -0.038217384   -0.0071092177  -0.015075411    0.022602284   -0.012949266    14.945565      14.945565      14.945565      0              0              0              0.065900045  
      5200   1.0353642      0.06798814    -0.29223894     2.3513902      0.067886036    0.08050034     0.081995392    0.041162376    0.029063153   -0.01793694    -0.0053494665   14.790965      14.790965      14.790965      0              0              0              0.06798814   
      5300   1.0718394      0.070095021   -0.37625605     2.4893492      0.080665665    0.072632938    0.077599452    0.091764604   -0.017357551   -0.023599561    0.027089608    14.641262      14.641262      14.641262      0              0              0              0.070095021  
      5400   1.0601479      0.072177944   -0.40800942     0.89340801    -0.018428561   -0.010224085   -0.0038157587  -0.041245839   -0.016723541    0.028208574   -0.018231805    14.499045      14.499045      14.499045      0              0              0              0.072177944  
      5500   1.021694       0.074331102   -0.42203327     2.1826481      0.072966318    0.057626695    0.078555075    0.082717185   -0.007213457   -0.014306183    0.01868847     14.357672      14.357672      14.357672      0              0              0              0.074331102  
      5600   0.98382204     0.076506585   -0.45754703     1.6730719      0.04606145     0.050319264    0.039097303    0.048767784    0.0073501132  -0.0060826627  -0.018395778    14.220274      14.220274      14.220274      0              0              0              0.076506585  
      5700   0.92726221     0.07870252    -0.44175064     0.31800949    -0.04465858    -0.048417106   -0.044226864   -0.041331771   -0.0029743833   0.013258125   -0.014879424    14.086768      14.086768      14.086768      0              0              0              0.07870252   
      5800   0.93395141     0.080975512   -0.49378231     2.001945       0.081108374    0.085037634    0.060179647    0.09810784     0.0021256244  -0.01838993     0.013308844    13.953709      13.953709      13.953709      0              0              0              0.080975512  
      5900   0.92986732     0.083207839   -0.50440734     1.4571024      0.043395368    0.061123118    0.031378933    0.037684055    0.0049345347  -0.0060691995  -0.01160218     13.827791      13.827791      13.827791      0              0              0              0.083207839  
      6000   0.92547912     0.085469436   -0.48349172     0.79270533    -0.008164704    0.006469513   -0.0060096688  -0.024953956   -0.013371065    0.0026523084  -0.01421088     13.704734      13.704734      13.704734      0              0              0              0.085469436  
      6100   0.97228883     0.087793851   -0.51988759     1.9827741      0.083924585    0.085076539    0.085796938    0.080900278    0.016294716    0.030333376   -0.00070755533  13.582703      13.582703      13.582703      0              0              0              0.087793851  
      6200   1.0216145      0.090112712   -0.55955491     1.3305171      0.029926632   -0.00041983004  0.039368013    0.050831712   -0.040795865   -0.020935797    0.0055241193   13.465181      13.465181      13.465181      0              0              0              0.090112712  
      6300   1.0399397      0.092448682   -0.5476023      0.97168369    -0.0027586681  -0.052495548    0.056759863   -0.012540319   -0.0038727726  -0.021313422   -0.016924441    13.350801      13.350801      13.350801      0              0              0              0.092448682  
      6400   1.0622844      0.094842043   -0.56980516     1.6402412      0.053851914    0.067948455    0.031172143    0.062435144    0.01390804     0.017523264    0.00022288794  13.237539      13.237539      13.237539      0              0              0              0.094842043  
      6500   1.0578549      0.097242701   -0.58006325     0.99033887    -0.0007466792   0.0064598261  -0.007090706   -0.0016091576  -0.01640878     0.006443915   -0.0033334084   13.127697      13.127697      13.127697      0              0              0              0.097242701  
      6600   1.0440708      0.099671608   -0.58839368     1.4346438      0.042112326    0.037661909    0.097460727   -0.0087856581  -0.035637679    0.013848572    0.0022498963   13.020183      13.020183      13.020183      0              0              0              0.099671608  
      6700   1.0365635      0.10210196    -0.62671401     1.6461961      0.067372364    0.11090918     0.063939094    0.027268822   -0.014835136    0.011571694    0.0093150554   12.916045      12.916045      12.916045      0              0              0              0.10210196   
      6800   1.0130406      0.10453629    -0.66211533     0.6147733     -0.022339833   -0.067557489   -0.015074243    0.015612232    0.010661442    0.010402035    0.0042856559   12.814998      12.814998      12.814998      0              0              0              0.10453629   
      6900   1.0061378      0.10703696    -0.71824382     1.5102674      0.070727154    0.073599817    0.058301826    0.080279819   -0.011083739    0.0088570916  -0.0052742001   12.714413      12.714413      12.714413      0              0              0              0.10703696   
      7000   0.92275105     0.10954341    -0.66178772     0.7965504      0.0080795407  -0.018223145    0.055248655   -0.012786888   -0.06200145    -0.014661171    0.0098451467   12.616691      12.616691      12.616691      0              0              0              0.10954341   
      7100   0.93337422     0.11210609    -0.70637521     0.65030145    -0.0037080987   0.03850783    -0.012349089   -0.037283037    0.017662119   -0.020455366   -0.079459569    12.519813      12.519813      12.519813      0              0              0              0.11210609   
      7200   0.93242427     0.11472451    -0.70603036     1.3038892      0.064483131    0.054514835    0.08227038     0.05666418     0.025784205    0.036061553    0.015421261    12.42383       12.42383       12.42383       0              0              0              0.11472451   
      7300   0.95100135     0.11730989    -0.70132414     0.34674677    -0.03959727    -0.073426798   -0.032952191   -0.012412821   -0.014746652   -0.027990556    0.061824529    12.331882      12.331882      12.331882      0              0              0              0.11730989   
      7400   1.0009443      0.11994741    -0.71160416     1.4742015      0.075446513    0.076625756    0.072599624    0.077114158   -0.0013942326  -0.049902241   -0.018181403    12.240823      12.240823      12.240823      0              0              0              0.11994741   
      7500   1.0416504      0.12252742    -0.70831804     1.6195318      0.086124147    0.06901283     0.060376408    0.1289832      0.011224537   -0.034943429   -0.014740823    12.154296      12.154296      12.154296      0              0              0              0.12252742   
      7600   1.0371642      0.12512758    -0.66593741     0.92587389     0.0049873352   0.005269161    0.029561658   -0.019868814   -0.051670013    0.00073259097  0.025889399    12.069517      12.069517      12.069517      0              0              0              0.12512758   
      7700   1.1263021      0.12778666    -0.79929931     1.8425473      0.11162057     0.10939166     0.12961899     0.095851058   -0.011939974    0.051032707   -0.063713176    11.985212      11.985212      11.985212      0              0              0              0.12778666   
      7800   1.0810685      0.13038156    -0.78462719     1.522424       0.082206342    0.12040254     0.066881354    0.05933513    -0.01537873     0.05056096    -0.04455376     11.905167      11.905167      11.905167      0              0              0              0.13038156   
      7900   1.0093538      0.1330146     -0.77148836     0.75784178     0.0027654481   0.0050589723  -0.013741577    0.016978949   -0.042146291   -0.025081663   -0.0057418658   11.826088      11.826088      11.826088      0              0              0              0.1330146    
      8000   0.99828584     0.13573403    -0.85080233     0.95681934     0.039199995    0.033988865    0.07073209     0.01287903     0.026921499    0.00385338    -0.0033837395   11.746576      11.746576      11.746576      0              0              0              0.13573403   
      8100   0.95783993     0.13851684    -0.87743355     0.44751037    -0.013175743   -0.062087885    0.019392314    0.00316834    -0.01175901     0.06924983    -0.0083618262   11.667381      11.667381      11.667381      0              0              0              0.13851684   
      8200   0.89506772     0.14133683    -0.83219503     0.47150302    -0.0041360965  -0.076097063    0.056605838    0.0070829359  -0.014431846    0.019389847   -0.0082200475   11.589262      11.589262      11.589262      0              0              0              0.14133683   
      8300   0.90315025     0.14424555    -0.86254219     0.75120622     0.034854532    0.025962835    0.086753275   -0.0081525143  -0.021552065    0.014191493    0.002398683    11.510833      11.510833      11.510833      0              0              0              0.14424555   
      8400   0.98558        0.14710076    -0.96017129     0.77827622     0.035768131    0.10389571    -0.0022178719   0.0056265594  -0.025154696   -0.0012787571  -0.010820917    11.435871      11.435871      11.435871      0              0              0              0.14710076   
      8500   1.0007112      0.14994052    -0.9354769      0.07110363    -0.066380164   -0.11222838    -0.056997566   -0.029914546    0.059734189   -0.040269933   -0.07489874     11.363215      11.363215      11.363215      0              0              0              0.14994052   
      8600   0.99148785     0.15292141    -0.86923259     1.1210349      0.070965518    0.051502801    0.019489378    0.14190438    -0.052012952    0.023394548    0.046791513    11.288896      11.288896      11.288896      0              0              0              0.15292141   
      8700   1.0666385      0.15583188    -0.93666022     1.1240032      0.066399317    0.074399359    0.12802315    -0.0032245609  -0.0099222707  -0.019099427    0.012413977    11.218173      11.218173      11.218173      0              0              0              0.15583188   
      8800   1.0859012      0.15869267    -0.94542944     0.26324903    -0.059441804   -0.088652779   -0.019914215   -0.069758417    0.038437276   -0.040182882   -0.043583535    11.150353      11.150353      11.150353      0              0              0              0.15869267   
      8900   1.0724405      0.16169653    -0.95081755     1.1402889      0.072100336    0.11693548     0.054870575    0.044494955   -0.046655122    0.017249156   -0.022610361    11.080873      11.080873      11.080873      0              0              0              0.16169653   
      9000   1.0275058      0.16464645    -0.94352879     0.64630105     0.0084235217   0.062071711   -0.025525524   -0.011275622    0.046516025   -0.085971809    0.014862101    11.014297      11.014297      11.014297      0              0              0              0.16464645   
      9100   0.95771006     0.167635      -0.90525778     0.37632797    -0.022523518   -0.022382689    0.044571097   -0.089758961   -0.042315651    0.03132678     0.00025010066  10.948451      10.948451      10.948451      0              0              0              0.167635     
      9200   0.98437686     0.17067849    -1.0043469      0.78848965     0.050218897   -0.064269961    0.12977977     0.085146883    0.053181567    0.03341122     0.019380999    10.882983      10.882983      10.882983      0              0              0              0.17067849   
      9300   0.96912725     0.17373535    -1.035226       0.68538477     0.043305644    0.039889946    0.042575336    0.047451649   -0.03955135    -0.0018155185   0.0072033097   10.818777      10.818777      10.818777      0              0              0              0.17373535   
      9400   0.99324197     0.17672606    -1.1080361     -0.16525394    -0.086697217   -0.073973598   -0.13417054    -0.051947516   -0.029490975    0.0059875756  -0.0023330961   10.757401      10.757401      10.757401      0              0              0              0.17672606   
      9500   1.0546269      0.17985721    -1.239797       0.86787206     0.087253375    0.09003501     0.1019297      0.069795414    0.059061954   -0.015415193   -0.014290565    10.69461       10.69461       10.69461       0              0              0              0.17985721   
      9600   1.0077878      0.18293897    -1.23059        0.31330051     0.006613628   -0.10559687     0.022032455    0.1034053      0.0053634952   0.098259645    0.026379166    10.634216      10.634216      10.634216      0              0              0              0.18293897   
      9700   1.0049333      0.18603324    -1.2865999     -0.15226281    -0.061818138   -0.040300268   -0.069748135   -0.07540601     0.012587876   -0.042535871   -0.021964408    10.574927      10.574927      10.574927      0              0              0              0.18603324   
      9800   0.94407878     0.18924708    -1.2534149      0.4862533      0.056882613    0.090308972    0.02881608     0.051522788    0.064967755   -0.050332747   -0.040926318    10.514723      10.514723      10.514723      0              0              0              0.18924708   
      9900   0.99294104     0.1924562     -1.3549545      0.22579816     0.017284002    0.058541457    0.046537961   -0.053227414   -0.043041528   -0.040584493   -0.046384603    10.455952      10.455952      10.455952      0              0              0              0.1924562    
     10000   0.985981       0.19555688    -1.3526174      0.12620142     0.0012875167  -0.020102913   -0.072874928    0.096840391    0.023225869   -0.12807865    -0.033713987    10.400396      10.400396      10.400396      0              0              0              0.19555688   
     10100   0.97616544     0.19874529    -1.3455138      0.40401974     0.05286745     0.10007846     0.062246913   -0.0037230195  -0.023164289    0.018499789   -0.062911137    10.344479      10.344479      10.344479      0              0              0              0.19874529   
     10200   0.94054723     0.20195       -1.2910768      0.21559537     0.018892498   -0.0073970285   0.033812976    0.030261546    0.051329512    0.020201602    0.09897564     10.289468      10.289468      10.289468      0              0              0              0.20195      
     10300   1.0017067      0.20520092    -1.3727249      0.38854458     0.049662771    0.073720885   -0.088349611    0.16361704     0.018947918   -0.042531653   -0.055310109    10.234842      10.234842      10.234842      0              0              0              0.20520092   
     10400   1.0098749      0.20835993    -1.3685082      0.10571362    -0.0062539092  -0.058642385    0.087930214   -0.048049557   -0.086491089   -0.024595289    0.070429961    10.182853      10.182853      10.182853      0              0              0              0.20835993   
     10500   0.99010054     0.21164104    -1.3246436      0.18180383     0.0055262084  -0.044490137    0.037802412    0.02326635    -0.049414593    0.095461672    0.040039564    10.129957      10.129957      10.129957      0              0              0              0.21164104   
     10600   1.014937       0.21494606    -1.3529723      0.29367677     0.025765312   -0.025642833    0.024025491    0.078913278    0.014653275    0.0024765361   0.078379543    10.077769      10.077769      10.077769      0              0              0              0.21494606   
     10700   1.0540812      0.21823689    -1.4095363      0.4970369      0.066137087    0.14570627    -0.051932398    0.10463739     0.0083355183  -0.045440209    0.034208223    10.026857      10.026857      10.026857      0              0              0              0.21823689   
     10800   0.99549401     0.22155683    -1.339256       0.12340121    -0.0046562304  -0.002992266    0.084878141   -0.095854566   -0.096528043    0.013065154   -0.0065747474   9.9765224      9.9765224      9.9765224      0              0              0              0.22155683   
     10900   0.948016       0.22501253    -1.2884012     -0.16540725    -0.059714221   -0.10122366    -0.19215503     0.11423603     0.046657608   -0.024455444    0.065577003    9.9251861      9.9251861      9.9251861      0              0              0              0.22501253   
     11000   0.96556985     0.22858049    -1.3217453      0.11658712    -0.00057781258  0.033436788   -0.01512895    -0.020041275    0.0016317082   0.02604961    -0.030908864    9.8732737      9.8732737      9.8732737      0              0              0              0.22858049   
     11100   0.96296336     0.23211906    -1.3017794      0.25987874     0.026258008    0.061839717    0.066093695   -0.049159389    0.029879959   -0.12296323     0.031582455    9.822845       9.822845       9.822845       0              0              0              0.23211906   
     11200   1.0037184      0.2355965     -1.339558       0.6605232      0.10752441    -0.088532138    0.15283892     0.25826645     0.013818822   -0.028890375   -0.052873649    9.7742764      9.7742764      9.7742764      0              0              0              0.2355965    
     11300   1.0415238      0.23895608    -1.3789317      0.26559722     0.019562829    3.945835e-05   0.068471397   -0.0098223699  -0.14927124     0.04110992     0.018705068    9.7282531      9.7282531      9.7282531      0              0              0              0.23895608   
     11400   1.0310683      0.24234543    -1.3707917      0.07338511    -0.020862128    0.030042891   -0.016068423   -0.076560851    0.067394854   -0.037873811    0.019529818    9.6826883      9.6826883      9.6826883      0              0              0              0.24234543   
     11500   1.0468159      0.24574739    -1.4241645      0.30496972     0.037255614    0.16634396     0.034087709   -0.088664822   -0.034771025   -0.043868984   -0.025633434    9.6378002      9.6378002      9.6378002      0              0              0              0.24574739   
     11600   1.01514        0.24923494    -1.4322125      0.23492547     0.034449169   -0.01285942     0.016173634    0.10003329     0.027664751   -0.036532088    0.035859309    9.5926349      9.5926349      9.5926349      0              0              0              0.24923494   
     11700   0.97237769     0.2528104     -1.4264409     -0.28916634    -0.072165677   -0.16390401     0.096142594   -0.14873561     0.025400588   -0.046860879   -0.094672422    9.5471977      9.5471977      9.5471977      0              0              0              0.2528104    
     11800   1.0246372      0.25653741    -1.5533257     -0.31424022    -0.06767587     0.0039645781  -0.19159865    -0.015393533    0.037257326   -0.10602115    -0.013748321    9.5007377      9.5007377      9.5007377      0              0              0              0.25653741   
     11900   1.027401       0.26028939    -1.6125758     -0.043286439    0.0084933033   0.2051945     -0.19936689     0.019652305   -0.0042352702   0.059997602    0.038746796    9.4548666      9.4548666      9.4548666      0              0              0              0.26028939   
     12000   1.0468539      0.26393364    -1.7042728     -0.047953711    0.02252786     0.14852391    -0.0025071742  -0.078433151   -0.06882629    -0.027592295   -0.0065838232   9.411149       9.411149       9.411149       0              0              0              0.26393364   
     12100   1.056506       0.26751638    -1.7931989     -0.37343019    -0.038198061   -0.10309895    -0.037865755    0.026370519    0.01097555     0.079678775    0.12759819     9.3689467      9.3689467      9.3689467      0              0              0              0.26751638   
     12200   1.0089875      0.27127323    -1.8099134     -0.16119111     0.03521827     0.10297968    -0.0054061608   0.0080812912  -0.032506273    0.094041422   -0.090577058    9.3254954      9.3254954      9.3254954      0              0              0              0.27127323   
     12300   1.0362749      0.2749535     -1.9446359     -0.65783796    -0.064949594   -0.044668353   -0.011328158   -0.13885227    -0.027628607   -0.12953821     0.10138856     9.2837009      9.2837009      9.2837009      0              0              0              0.2749535    
     12400   1.0108983      0.27855592    -2.0004814     -0.17084824     0.081254141    0.24510535    -0.070400052    0.069057121    0.098724705   -0.13379086     0.064012831    9.2435068      9.2435068      9.2435068      0              0              0              0.27855592   
     12500   0.97034675     0.28204268    -2.0268926     -0.33428429     0.06265599     0.047285379    0.096228434    0.044454156   -0.076554354    0.0023162311  -0.08859304     9.2052576      9.2052576      9.2052576      0              0              0              0.28204268   
     12600   0.95406864     0.28567407    -2.0692485     -0.9372404     -0.075817744   -0.09153766    -0.075975793   -0.05993978     0.0069316241  -0.041628084   -0.038915337    9.1660865      9.1660865      9.1660865      0              0              0              0.28567407   
     12700   0.92474358     0.2894372     -2.061327      -0.4451626      0.062093381   -0.024170665    0.12807975     0.082371054    0.0094210346  -0.042248479    0.037437631    9.1261887      9.1261887      9.1261887      0              0              0              0.2894372    
     12800   0.90103693     0.29315162    -2.0330406     -0.67287675     0.0040951209   0.0024386292   0.034037342   -0.024190608   -0.080099731    0.010862941   -0.066109716    9.0874798      9.0874798      9.0874798      0              0              0              0.29315162   
     12900   0.93394275     0.29697748    -2.060324      -0.59208507     0.020067402    0.095957816   -0.10511484     0.069359229    0.061716445    0.082303768    0.12266191     9.0482874      9.0482874      9.0482874      0              0              0              0.29697748   
     13000   0.99127869     0.30095115    -2.100586      -0.69226887    -0.01947054    -0.034995017   -0.13591541     0.1124988     -0.003778584   -0.0022445869  -0.017715757    9.0082872      9.0082872      9.0082872      0              0              0              0.30095115   
     13100   0.97350558     0.30487662    -2.0135606     -0.76619559    -0.056982026   -0.0079213015   0.076846596   -0.23987137     0.0085335235  -0.06707661    -0.11386274     8.9694577      8.9694577      8.9694577      0              0              0              0.30487662   
     13200   1.0462854      0.3087728     -2.0609776     -0.34528932     0.043258329    0.05349386    -0.057709204    0.13399033     0.15223795     0.093287902    0.10194076     8.9315716      8.9315716      8.9315716      0              0              0              0.3087728    
     13300   1.0753326      0.31262502    -2.0565421     -0.62871803    -0.050335435   -0.15689939     0.011531421   -0.0056383337  -0.14221068     0.017824097    0.081691685    8.8947344      8.8947344      8.8947344      0              0              0              0.31262502   
     13400   1.0213564      0.316401      -1.9421866     -0.079941265    0.097184274   -0.094870283    0.076590442    0.30983266     0.015854589    0.038974706   -0.1699678      8.859209       8.859209       8.859209       0              0              0              0.316401     
     13500   1.0441803      0.32020557    -1.9717013     -0.53455217    -0.035307022    0.010588884   -0.14228046     0.025770508   -0.11332303    -0.0057844208   0.063746491    8.8239817      8.8239817      8.8239817      0              0              0              0.32020557   
     13600   1.0406704      0.32426487    -1.9780966     -0.9152701     -0.14455553    -0.14471684    -0.13551517    -0.15343459     0.018792351    0.067805029   -0.005061428    8.787006       8.787006       8.787006       0              0              0              0.32426487   
     13700   0.95623168     0.32852628    -1.8682719      0.14027736     0.17363317     0.18187466     0.32728367     0.011741163   -0.057148378   -0.024826305    0.025326904    8.7488477      8.7488477      8.7488477      0              0              0              0.32852628   
     13800   0.97958984     0.33238651    -1.9173031     -0.36971608     0.025850349   -0.087274872    0.069809172    0.095016747   -0.1126109     -0.050143568    0.094469903    8.7148469      8.7148469      8.7148469      0              0              0              0.33238651   
     13900   1.0279931      0.33638816    -2.0199131     -0.70038117    -0.065671441    0.12070057    -0.11092171    -0.20679319    -0.0051332103  -0.01819311    -0.0071080041   8.680152       8.680152       8.680152       0              0              0              0.33638816   
     14000   1.0397805      0.34028276    -2.079763      -0.33765002     0.05885051    -0.0053093027   0.051699686    0.13016115    -0.13107335     0.092337548   -0.11964879     8.6469094      8.6469094      8.6469094      0              0              0              0.34028276   
     14100   0.97941615     0.34419536    -2.0579603      0.12682265     0.22623159     0.36343844     0.093468964    0.22178736     0.079817209    0.03028598    -0.032178887    8.6140203      8.6140203      8.6140203      0              0              0              0.34419536   
     14200   0.97822934     0.34802303    -2.1281169     -1.3918588     -0.22898308    -0.27430434    -0.29556954    -0.11707536     0.0024902423   0.046884794    0.03132174     8.5823238      8.5823238      8.5823238      0              0              0              0.34802303   
     14300   0.91777408     0.35233609    -2.0876838     -1.1868164     -0.15019459    -0.19278335    -0.10913112    -0.1486693      0.03814142    -0.0028429956  -0.0436581      8.5471603      8.5471603      8.5471603      0              0              0              0.35233609   
     14400   0.92705739     0.35681937    -2.1164556     -0.19419776     0.17471974     0.082770489    0.043172586    0.39821613     0.088081718    0.031140943   -0.03630602     8.5112123      8.5112123      8.5112123      0              0              0              0.35681937   
     14500   0.9488201      0.36103823    -2.1291633     -1.3587299     -0.21192309    -0.10242453    -0.45600051    -0.077344216    0.10702399     0.078476014   -0.039355961    8.4779301      8.4779301      8.4779301      0              0              0              0.36103823   
     14600   0.98582175     0.36557644    -2.1407085     -0.42145028     0.082394027   -0.092399514    0.25297184     0.086609753    0.17504357    -0.18977853    -0.014976337    8.4427026      8.4427026      8.4427026      0              0              0              0.36557644   
     14700   0.98817919     0.3698729     -2.0838321     -0.074152896    0.17983279     0.34476396     0.0032379366   0.19149648     0.12296635     0.036797398    0.05310702     8.409885       8.409885       8.409885       0              0              0              0.3698729    
     14800   1.1319274      0.37399917    -2.2150566     -1.3102981     -0.2667781     -0.22760074    -0.15149922    -0.42123433    -0.097822958    0.024851799   -0.066284874    8.3788423      8.3788423      8.3788423      0              0              0              0.37399917   
     14900   1.0993609      0.3784279     -2.1053921      0.089520532    0.19063012     0.057342047    0.41114295     0.10340538    -0.028552568   -0.059922228    0.15228312     8.3460281      8.3460281      8.3460281      0              0              0              0.3784279    
     15000   1.0989132      0.38251844    -2.0802855     -0.32206212     0.041066974   -0.13137054     0.13921959     0.11535187     0.1123968     -0.06527629    -0.19393998     8.3161715      8.3161715      8.3161715      0              0              0              0.38251844   
     15100   1.0785587      0.38670055    -2.0916425     -0.54158835    -0.020985404    0.072064878    0.10612015    -0.24114124    -0.051966567   -0.0085622139  -0.037792526    8.2860834      8.2860834      8.2860834      0              0              0              0.38670055   
     15200   1.004466       0.39084507    -2.1134287     -0.57530472     0.013842481    0.030768423   -0.17388698     0.184646       0.033749375   -0.024326575   -0.058292399    8.2566907      8.2566907      8.2566907      0              0              0              0.39084507   
     15300   0.96689207     0.39509471    -2.1699656     -0.66226726     0.023207097   -0.079189083    0.041258601    0.10755177     0.14216907    -0.067600988    0.27791115     8.2269809      8.2269809      8.2269809      0              0              0              0.39509471   
     15400   0.95807942     0.3996014     -2.2207523     -1.1684711     -0.13719127     0.035634901   -0.13400086    -0.31320785     0.1052158     -0.034760731   -0.10477479     8.195936       8.195936       8.195936       0              0              0              0.3996014    
     15500   0.92495767     0.40444514    -2.1975497     -1.5874814     -0.28327005    -0.34100127    -0.19857999    -0.31022888    -0.10636798     0.11712578    -0.024307128    8.1630856      8.1630856      8.1630856      0              0              0              0.40444514   
     15600   0.93404726     0.40973394    -2.2199956     -1.2090173     -0.1426944     -0.16150488    -0.28501769     0.018439362   -0.077465607    0.003106465   -0.010927985    8.1278107      8.1278107      8.1278107      0              0              0              0.40973394   
     15700   1.0122379      0.41483813    -2.3163851     -1.0793312     -0.10322346     0.15603965    -0.16322143    -0.30248858     0.14607793     0.11675604    -0.19921706     8.0943381      8.0943381      8.0943381      0              0              0              0.41483813   
     15800   1.0889069      0.41969242    -2.4004882     -1.1307658     -0.13562598    -0.13750823    -0.024170534   -0.24519918    -0.020967811   -0.065809427    0.18526219     8.0630098      8.0630098      8.0630098      0              0              0              0.41969242   
     15900   1.045775       0.4244992     -2.3171422     -0.72044901     0.013844059    0.11626966     0.079479859   -0.15421735    -0.061155464   -0.015465738   -0.18506081     8.0324605      8.0324605      8.0324605      0              0              0              0.4244992    
     16000   1.0823253      0.42894045    -2.3844415     -0.89616679    -0.049560509   -0.094392902   -0.08132878     0.027040154    0.073780859    0.30514615     0.013583471    8.0046416      8.0046416      8.0046416      0              0              0              0.42894045   
     16100   1.070334       0.43321874    -2.4307229     -1.097403      -0.10403302    -0.088552239   -0.13390908    -0.089637747   -0.19114466     0.066145021   -0.18635486     7.9782042      7.9782042      7.9782042      0              0              0              0.43321874   
     16200   0.98550657     0.43768918    -2.4022533     -1.0566235     -0.0498324     -0.0061004164   0.22742123    -0.37081801    -0.0025514205  -0.11221027     0.0085183598   7.9509488      7.9509488      7.9509488      0              0              0              0.43768918   
     16300   1.0319322      0.44254331    -2.558212      -1.481668      -0.18651789    -0.42199316    -0.27143816     0.13387766    -0.11760076     0.19557563     0.058534257    7.9217713      7.9217713      7.9217713      0              0              0              0.44254331   
     16400   0.93247094     0.44746267    -2.4554071     -1.2687448     -0.08341136    -0.074865842   -0.16128427    -0.014083967   -0.029993365    0.0014415239  -0.04352057     7.8926339      7.8926339      7.8926339      0              0              0              0.44746267   
     16500   0.87892452     0.4523602     -2.3961732     -1.0887073     -0.0017802138   0.14679651    -0.22572575     0.073588603    0.20490768    -0.14942868    -0.021654354    7.8640469      7.8640469      7.8640469      0              0              0              0.4523602    
     16600   0.95961616     0.45741431    -2.514306      -1.0328548      0.020468934   -0.010086176   -0.20447877     0.27597174    -0.066360772   -0.089262753    0.014685338    7.8349755      7.8349755      7.8349755      0              0              0              0.45741431   
     16700   0.99992943     0.46234464    -2.555329      -0.97894148     0.035303298   -0.36073799     0.27644901     0.19019887    -0.054381179    0.068456037   -0.013939703    7.8070258      7.8070258      7.8070258      0              0              0              0.46234464   
     16800   1.009749       0.46683936    -2.5485811     -1.2507153     -0.088777826   -0.017558475   -0.38499118     0.13621618    -0.007436547   -0.10371395     0.12587567     7.7818897      7.7818897      7.7818897      0              0              0              0.46683936   
     16900   1.0265057      0.47143872    -2.5537939     -1.074945      -0.022805119    0.030417824   -0.035871686   -0.062961496    0.013309986   -0.015285181   -0.24624894     7.7565002      7.7565002      7.7565002      0              0              0              0.47143872   
     17000   1.0263667      0.4763704     -2.5573024     -0.66953793     0.15413276    -0.040750723    0.4469052      0.056243801    0.086826975    0.25533872    -0.028848402    7.7296407      7.7296407      7.7296407      0              0              0              0.4763704    
     17100   1.0795373      0.48092089    -2.6889878     -2.2185582     -0.49874985    -0.38681255    -0.71028004    -0.39915697    -0.21039624     0.24699022     0.14466077     7.705184       7.705184       7.705184       0              0              0              0.48092089   
     17200   1.0156478      0.48605807    -2.723948      -1.5020371     -0.12988508    -0.31184523     0.021305975   -0.099115986   -0.092951954    0.17413298    -0.18438408     7.6779422      7.6779422      7.6779422      0              0              0              0.48605807   
     17300   0.98053098     0.49139888    -2.7824199     -1.3743293     -0.02472716     0.12955828    -0.091587851   -0.11215191    -0.16047777    -0.20400951     0.1217581      7.6500247      7.6500247      7.6500247      0              0              0              0.49139888   
     17400   0.92804687     0.49668479    -2.7545596     -1.6456859     -0.12472942    -0.34219708    -0.14118362     0.10919244     0.20424795     0.030328913    0.041450642    7.6227897      7.6227897      7.6227897      0              0              0              0.49668479   
     17500   0.94674463     0.50182237    -2.7929661     -1.1195623      0.11878932     0.24119395     0.017586741    0.097587272    0.0024778058   0.061105098   -0.15084586     7.5966868      7.5966868      7.5966868      0              0              0              0.50182237   
     17600   0.95385241     0.50670527    -2.7850643     -2.2483849     -0.40856351    -0.35031639    -0.27336437    -0.60200979     0.090013662   -0.15272608     0.21388649     7.572206       7.572206       7.572206       0              0              0              0.50670527   
     17700   0.9373534      0.5124735     -2.7255814     -1.6560808     -0.15350878    -0.30820586     0.0053207874  -0.15764126    -0.012475719    0.15130216     0.04922674     7.5436887      7.5436887      7.5436887      0              0              0              0.5124735    
     17800   1.0921215      0.51792418    -2.9004642     -1.6818564     -0.19369585    -0.095034653   -0.38813464    -0.097918263    0.073975106    0.14446026     0.11998415     7.5171318      7.5171318      7.5171318      0              0              0              0.51792418   
     17900   1.0762835      0.5229601     -2.831416      -0.97874788     0.11710265     0.25603686     0.18411731    -0.088846207    0.16259079    -0.0088965065  -0.12533466     7.4929248      7.4929248      7.4929248      0              0              0              0.5229601    
     18000   1.0029589      0.52711715    -2.701345      -0.98070508     0.10720783    -0.032300529    0.26167189     0.092252136   -0.017083005    0.26140999     0.058924105    7.4731754      7.4731754      7.4731754      0              0              0              0.52711715   
     18100   1.0368555      0.53174776    -2.7741826     -0.90038455     0.15773146    -0.017335277    0.29454113     0.19598853     0.097283516   -0.28329589     0.22519432     7.4514193      7.4514193      7.4514193      0              0              0              0.53174776   
     18200   1.0284822      0.53666909    -2.8251005     -1.2114733      0.038356018   -0.16341467     0.088729874    0.18975285     0.014125816   -0.16268685     0.1464548      7.4285725      7.4285725      7.4285725      0              0              0              0.53666909   
     18300   0.96067267     0.54184957    -2.8221933     -2.2146817     -0.40702377    -0.16117258    -0.63454508    -0.42535365    -0.077604445   -0.111373      -0.048207503    7.4048225      7.4048225      7.4048225      0              0              0              0.54184957   
     18400   0.96763683     0.54764342    -2.9200075     -1.7445207     -0.13377991    -0.27838796     0.085275902   -0.20822767     0.1788794     -0.042228011    0.092460788    7.3786164      7.3786164      7.3786164      0              0              0              0.54764342   
     18500   0.92712212     0.55329791    -2.8944302     -1.8504446     -0.17089068    -0.17360428    -0.18986703    -0.14920074    -0.17025669     0.10329341    -0.34682881     7.3533948      7.3533948      7.3533948      0              0              0              0.55329791   
     18600   0.95811256     0.55881073    -2.9337677     -2.4210895     -0.46599978    -0.20344606    -0.51085864    -0.68369466    -0.11221545    -0.15341934     0.35838138     7.3291338      7.3291338      7.3291338      0              0              0              0.55881073   
     18700   0.92713812     0.56487721    -2.8682798     -1.2313133      0.13003105     0.18376671     0.0087595328   0.19756691     0.041244889    0.049655351   -0.2669051      7.3028023      7.3028023      7.3028023      0              0              0              0.56487721   
     18800   0.97617849     0.57035105    -2.9134439     -1.5141036     -0.029868812    0.16960214    -0.13800001    -0.12120856     0.020227064   -0.07404108     0.016240872    7.2793647      7.2793647      7.2793647      0              0              0              0.57035105   
     18900   1.0702915      0.57578386    -3.04007       -1.9250467     -0.25250049    -0.38710699    -0.094213608   -0.27618089    -0.3398885      0.14952879    -0.43242513     7.2563975      7.2563975      7.2563975      0              0              0              0.57578386   
     19000   1.0599586      0.58114619    -3.021995      -1.09399        0.18280574     0.18234248     0.058573666    0.30750108    -0.0024479998   0.039947793   -0.21854659     7.2340099      7.2340099      7.2340099      0              0              0              0.58114619   
     19100   1.0577078      0.58619122    -3.0310307     -2.1762951     -0.38576354    -0.53078252    -0.54475662    -0.081751477   -0.36378692     0.23646759     0.037773681    7.213197       7.213197       7.213197       0              0              0              0.58619122   
     19200   1.1079417      0.59164049    -3.1500145     -2.0212248     -0.28227344     0.26671005    -0.50935909    -0.60417127     0.10959539    -0.052454088    0.062161947    7.1909831      7.1909831      7.1909831      0              0              0              0.59164049   
     19300   1.0090631      0.59730489    -3.096097      -1.1326188      0.24839821     0.23850104     0.35817085     0.14852275    -0.10338033    -0.099982078    0.26277719     7.1681795      7.1681795      7.1681795      0              0              0              0.59730489   
     19400   0.93260827     0.60276328    -3.0746703     -2.4185822     -0.40321013    -0.38475772    -0.43050807    -0.39436459    -0.046103138    0.019970475   -0.024871246    7.1464764      7.1464764      7.1464764      0              0              0              0.60276328   
     19500   0.9446431      0.60864056    -3.1419672     -2.1751363     -0.24514324    -0.18728249    -0.22777792    -0.32036931    -0.091566763   -0.13597578    -0.069154732    7.1233989      7.1233989      7.1233989      0              0              0              0.60864056   
     19600   0.95659954     0.6145366     -3.16681       -2.0087304     -0.15064259     0.03144405    -0.28486656    -0.19850526    -0.018907526    0.0045140642   0.21356432     7.1005443      7.1005443      7.1005443      0              0              0              0.6145366    
     19700   1.0312115      0.6204123     -3.2676509     -2.5563294     -0.46686685    -0.53657052    -0.49558109    -0.36844894    -0.27100263     0.0840875      0.23360645     7.0780576      7.0780576      7.0780576      0              0              0              0.6204123    
     19800   0.97199753     0.62622418    -3.1616005     -1.5598317      0.085999062    0.041850252    0.25418447    -0.038037539    0.2839218     -0.27176927    -0.0071170366   7.0560928      7.0560928      7.0560928      0              0              0              0.62622418   
     19900   0.99220755     0.63164684    -3.1758702     -1.5307116      0.094338618   -0.16296408     0.11913976     0.32684017     0.037962787   -0.29351277     0.0069417306   7.0358426      7.0358426      7.0358426      0              0              0              0.63164684   
     20000   1.0953434      0.63693349    -3.3254299     -2.395445      -0.40810938    -0.62430961    -0.082667855   -0.51735068     0.078038961    0.045782876    0.025167158    7.0163223      7.0163223      7.0163223      0              0              0              0.63693349   
     20100   1.037364       0.6428882     -3.2706952     -1.7138695      0.0050027694   0.051870736   -0.23492908     0.19806665     0.068832048   -0.11987882    -0.10474216     6.9945923      6.9945923      6.9945923      0              0              0              0.6428882    
     20200   1.0801232      0.64867373    -3.3855151     -2.072369      -0.17628466    -0.12759844    -0.40628189     0.0050263545   0.3191599     -0.15922522    -0.19496422     6.9737353      6.9737353      6.9737353      0              0              0              0.64867373   
     20300   1.051577       0.65418724    -3.3985391     -1.9006061     -0.042549323   -0.10590505     0.16689449    -0.18863741     0.28845073     0.14262661     0.022133402    6.9540884      6.9540884      6.9540884      0              0              0              0.65418724   
     20400   1.0946404      0.6590741     -3.507865      -1.9580352     -0.050281892   -0.29899688     0.32847106    -0.18031985    -0.15813916    -0.0745114     -0.13333262     6.9368581      6.9368581      6.9368581      0              0              0              0.6590741    
     20500   1.0372066      0.66406187    -3.4759672     -1.7559212      0.10384426    -0.12502802     0.64372119    -0.20716038     0.0038416846  -0.02565995    -0.074876501    6.9194469      6.9194469      6.9194469      0              0              0              0.66406187   
     20600   1.0183569      0.66881069    -3.501834      -2.3526236     -0.22538148    -0.2466774      0.17540048    -0.60486751     0.1044243      0.29421923    -0.12267217     6.903031       6.903031       6.903031       0              0              0              0.66881069   
     20700   1.06618        0.67377882    -3.6251428     -1.7730367      0.15976665     0.035788673   -0.17495953     0.61847081     0.35075535    -0.42027293     0.19710854     6.8860226      6.8860226      6.8860226      0              0              0              0.67377882   
     20800   0.97463167     0.67805779    -3.5314573     -1.3154011      0.46935061     0.41329295     0.68894155     0.30581732     0.17769875     0.15601825    -0.11760381     6.8715069      6.8715069      6.8715069      0              0              0              0.67805779   
     20900   1.0548037      0.6819568     -3.690179      -3.3064837     -0.73812477    -0.47579802    -0.75503139    -0.98354488     0.083482433   -0.071814732    0.05331662     6.8583862      6.8583862      6.8583862      0              0              0              0.6819568    
     21000   0.94800921     0.68748496    -3.5792425     -1.7251389      0.2744939      0.55497277     0.37596974    -0.10746081     0.63798095     0.34845248     0.4449036      6.8399537      6.8399537      6.8399537      0              0              0              0.68748496   
     21100   0.97677986     0.69208164    -3.6363496     -2.4108009     -0.14615211     0.26275528    -0.15283808    -0.54837352     0.025866343   -0.41953764    -0.17657644     6.8247768      6.8247768      6.8247768      0              0              0              0.69208164   
     21200   0.9806481      0.69717133    -3.6429501     -2.8270169     -0.41049703    -0.52543848    -0.58217396    -0.12387865     0.11312337     0.46307218    -0.42018282     6.8081281      6.8081281      6.8081281      0              0              0              0.69717133   
     21300   0.94383993     0.70304176    -3.5806504     -1.9956079      0.1127177     -0.11129738    -0.061994688    0.51144517     0.023307067    0.25845544    -0.22918853     6.7891257      6.7891257      6.7891257      0              0              0              0.70304176   
     21400   1.0846233      0.70857464    -3.7533852     -2.2319119     -0.06269403     0.0086850832  -0.0067659217  -0.19000125    -0.062533423    0.056559732   -0.26973229     6.7714087      6.7714087      6.7714087      0              0              0              0.70857464   
     21500   1.0634661      0.71404872    -3.6470232     -2.3406482     -0.18230845     0.1439213     -0.24581324    -0.4450334      0.17610612     0.40901227    -0.32588856     6.7540605      6.7540605      6.7540605      0              0              0              0.71404872   
     21600   1.103961       0.71955441    -3.6305473     -1.5893826      0.25740618    -0.058104217    0.021276379    0.80904639     0.01370037     0.22712933     0.0070914739   6.7367901      6.7367901      6.7367901      0              0              0              0.71955441   
     21700   1.1572287      0.72404704    -3.673697      -0.98023582     0.63604065     0.51090398     0.53761231     0.85960565     0.059577265   -0.042454418    0.15999009     6.7228275      6.7228275      6.7228275      0              0              0              0.72404704   
     21800   1.0956306      0.72715544    -3.609407      -1.6330045      0.22553317     0.18905007     0.62753663    -0.13998719    -0.47608184     0.09916149     0.11490807     6.7132343      6.7132343      6.7132343      0              0              0              0.72715544   
     21900   1.0952148      0.73050739    -3.7188314     -1.58952        0.32853132     0.37229439     0.17495668     0.43834288    -0.1793945      0.081924282    0.089615358    6.7029507      6.7029507      6.7029507      0              0              0              0.73050739   
     22000   1.0698061      0.73416522    -3.8052734     -1.6028103      0.4043098     -0.14082172     0.90741975     0.44633135     0.43025578    -0.1707298      0.14760751     6.6918001      6.6918001      6.6918001      0              0              0              0.73416522   
     22100   0.97412266     0.73764392    -3.7185902     -2.2126368      0.034920979   -0.069362757    0.029822969    0.14430273     0.3980863     -0.17928273     0.11451898     6.6812641      6.6812641      6.6812641      0              0              0              0.73764392   
     22200   1.0671843      0.74213523    -3.8998914     -2.3831272     -0.051280417   -0.022688318   -0.19619511     0.065042179    0.26507984     0.17732464    -0.056000823    6.6677587      6.6677587      6.6677587      0              0              0              0.74213523   
     22300   1.0236234      0.74685946    -3.8738935     -1.1641316      0.80253706     0.7976056      0.69379613     0.91620945    -0.26732377     0.1813942      0.079724004    6.6536701      6.6536701      6.6536701      0              0              0              0.74685946   
     22400   0.99422429     0.75024299    -3.8757778     -2.1854179      0.14082754    -0.22051865     0.34818567     0.2948156      0.46504396    -0.0013561337   0.14707577     6.6436525      6.6436525      6.6436525      0              0              0              0.75024299   
     22500   0.99938294     0.75427061    -3.9365569     -1.8684593      0.39531905     0.24743258     0.42928295     0.50924163    -0.13851744    -0.25089978     0.034590046    6.6318063      6.6318063      6.6318063      0              0              0              0.75427061   
     22600   1.0126026      0.75815897    -4.0173219     -2.1797879      0.22484555    -0.091298673    0.44081122     0.32502412    -0.02238777    -0.30670038    -0.058068994    6.6204494      6.6204494      6.6204494      0              0              0              0.75815897   
     22700   0.94328862     0.76237196    -3.9734312     -2.3557625      0.1454124     -0.50412796     0.66001633     0.28034882     0.042911397    0.64921267     0.41000824     6.6082316      6.6082316      6.6082316      0              0              0              0.76237196   
     22800   0.93707874     0.76675125    -3.9884814     -1.8858026      0.49078267     0.23424035     1.0076016      0.2305061     -0.20683355    -0.07866766     0.45532872     6.5956266      6.5956266      6.5956266      0              0              0              0.76675125   
     22900   1.0075279      0.77066328    -4.0907009     -2.2010982      0.27033973     0.23300405    -0.033464717    0.61147985     0.1090467      0.10667173     0.53331383     6.5844475      6.5844475      6.5844475      0              0              0              0.77066328   
     23000   1.063252       0.77510288    -4.1517759     -2.8533617     -0.20328092    -0.29610648    -0.17846438    -0.1352719      0.27915867    -0.029389085    0.16467808     6.571852       6.571852       6.571852       0              0              0              0.77510288   
     23100   1.0636814      0.77987288    -4.1259246     -1.9842335      0.39287632     0.57494577     0.23287067     0.37081251     0.2609243      0.13735929    -0.081336055    6.558426       6.558426       6.558426       0              0              0              0.77987288   
     23200   1.0972217      0.78383112    -4.1598317     -1.6848108      0.59672171     0.56027751     0.63022486     0.59966275     0.31464704    -0.027359141   -0.29381344     6.5473676      6.5473676      6.5473676      0              0              0              0.78383112   
     23300   0.97413206     0.78688701    -3.9949284     -1.9955757      0.39019624     0.84252408     0.25445824     0.073606393    0.011764319    0.023759702    0.011113853    6.538881       6.538881       6.538881       0              0              0              0.78688701   
     23400   1.0584007      0.78968483    -4.1644433     -1.6299064      0.68549944     0.36487061     0.74283936     0.94878837     0.38536315     0.36224425     0.31979305     6.5311496      6.5311496      6.5311496      0              0              0              0.78968483   
     23500   0.9999391      0.79263811    -4.154425      -2.1870646      0.34224047     0.41775139     0.091821837    0.51714819    -0.17009567    -0.17346767    -0.087439833    6.523028       6.523028       6.523028       0              0              0              0.79263811   
     23600   0.99089614     0.79617433    -4.2197495     -2.1507212      0.42712284     0.22561064     0.72887304     0.32688484     0.14430564     0.45658635     0.2626106      6.5133563      6.5133563      6.5133563      0              0              0              0.79617433   
     23700   0.95981241     0.79969487    -4.2358817     -1.8929964      0.66183133     0.21051599     1.5198099      0.25516809    -0.24337844    -0.059215816    0.22847395     6.5037842      6.5037842      6.5037842      0              0              0              0.79969487   
     23800   0.93565164     0.80282755    -4.2254146     -2.1579519      0.48972674     0.35297603     0.18292241     0.93328178    -0.093175502    0.11705623    -0.2316572      6.4953138      6.4953138      6.4953138      0              0              0              0.80282755   
     23900   0.93750125     0.80594581    -4.2286434     -2.0141011      0.59736824     0.55367684     0.78041914     0.45800874    -0.015530717    0.33887311     0.1754309      6.486926       6.486926       6.486926       0              0              0              0.80594581   
     24000   0.97909637     0.80909308    -4.2838617     -1.6193735      0.88499103     1.3628139      0.73566243     0.55649674    -0.20475672    -0.018765368   -0.074737698    6.478504       6.478504       6.478504       0              0              0              0.80909308   
     24100   1.0323232      0.81196127    -4.3503172     -2.5352429      0.20249716     0.67984769    -0.070430732   -0.0019254727  -0.055150521   -0.40000785     0.03558841     6.4708667      6.4708667      6.4708667      0              0              0              0.81196127   
     24200   0.99063078     0.81516581    -4.269078      -1.6516338      0.84401359     0.88114297     0.48719488     1.1637029     -0.58766379    -0.17678666    -0.079980688    6.4623763      6.4623763      6.4623763      0              0              0              0.81516581   
     24300   1.024807       0.81723121    -4.2895988     -1.7375734      0.7596543      0.75226703     0.76282008     0.7638758     -0.0011892537  -0.028522741   -0.34601804     6.4569275      6.4569275      6.4569275      0              0              0              0.81723121   
     24400   1.0224463      0.81895269    -4.2449881     -1.7883218      0.69288248     0.20572652     1.0928351      0.78008586     0.59983338     0.15877386    -0.036326146    6.4524001      6.4524001      6.4524001      0              0              0              0.81895269   
     24500   1.0906314      0.8205636     -4.313435      -1.5955792      0.8131699      0.18263279     0.64690044     1.6099765     -0.24392538     0.11515935    -0.19847466     6.4481749      6.4481749      6.4481749      0              0              0              0.8205636    
     24600   1.0925273      0.82180772    -4.3121462     -2.0396559      0.4795572      1.6295643      0.35882137    -0.54971408     0.63592645    -0.14856541     0.085360847    6.4449194      6.4449194      6.4449194      0              0              0              0.82180772   
     24700   1.0826323      0.82345248    -4.338936      -1.892058       0.62211777    -0.056515546    0.84098453     1.0818843     -0.41971008     0.032500556   -0.32285327     6.4406255      6.4406255      6.4406255      0              0              0              0.82345248   
     24800   0.99291126     0.8251549     -4.2988486     -1.3993413      1.06339        1.0487435      1.0743011      1.0671255     -0.19612561     0.10874333    -0.090043394    6.4361931      6.4361931      6.4361931      0              0              0              0.8251549    
     24900   0.93354858     0.82583207    -4.2892912     -1.2566102      1.2307598      1.1534489      1.4723347      1.066496       0.20623009     0.021639925    0.27733797     6.4344334      6.4344334      6.4344334      0              0              0              0.82583207   
     25000   0.9805101      0.82571286    -4.3960598     -1.9269877      0.75489728     0.70762901     0.3719948      1.185068      -0.01973259     0.38165534     0.0008235474   6.4347431      6.4347431      6.4347431      0              0              0              0.82571286   
     25100   0.91814457     0.8265879     -4.318462      -2.1132929      0.62733389     0.90667639     0.16736934     0.80795593    -0.38889116     0.11998766    -0.52928666     6.4324716      6.4324716      6.4324716      0              0              0              0.8265879    
     25200   0.9652227      0.82830325    -4.3787244     -1.6089147      1.0009027      1.206189       1.0271166      0.76940234    -0.0026989114   0.016104857   -0.069809085    6.4280282      6.4280282      6.4280282      0              0              0              0.82830325   
     25300   0.94015987     0.83013155    -4.3228291     -1.9480381      0.73323435     1.2180579      0.6448295      0.33681565     0.16248592     0.24115725    -0.44892907     6.4233056      6.4233056      6.4233056      0              0              0              0.83013155   
     25400   0.96299623     0.83195656    -4.3241509     -2.1187985      0.58091791     0.66416966     0.11472105     0.963863       0.26221131    -0.22635667    -0.44545203     6.4186054      6.4186054      6.4186054      0              0              0              0.83195656   
     25500   1.0134811      0.8343476     -4.3486082     -0.9084151      1.4620597      1.2655301      1.5434398      1.5772091     -0.37642958     0.31898402     0.14695951     6.4124681      6.4124681      6.4124681      0              0              0              0.8343476    
     25600   1.0380518      0.83476473    -4.3242852     -0.94721222     1.3870608      1.9824748      0.6991059      1.4796016     -0.0054946914   0.061662942   -0.39131532     6.4113999      6.4113999      6.4113999      0              0              0              0.83476473   
     25700   1.1129886      0.83395126    -4.3684188     -0.70452721     1.5183645      1.678972       2.2015055      0.67461614    -0.06373504     0.023788727    0.3090888      6.4134838      6.4134838      6.4134838      0              0              0              0.83395126   
     25800   1.0736561      0.83217106    -4.2859289     -0.76968329     1.4478369      1.2945374      1.8500311      1.1989421     -0.17686199     0.10342511    -0.010346585    6.4180538      6.4180538      6.4180538      0              0              0              0.83217106   
     25900   1.1042698      0.82955403    -4.3646526     -1.3535745      1.0278592      1.0721567      0.98034177     1.031079      -0.19930995     0.1526717     -0.2840388      6.4247959      6.4247959      6.4247959      0              0              0              0.82955403   
     26000   1.0086985      0.82723575    -4.31121       -1.2837425      1.1445821      1.6751611      1.1178501      0.64073517     0.54708663    -0.20661677     0.30245993     6.430792       6.430792       6.430792       0              0              0              0.82723575   
     26100   0.99203114     0.82562639    -4.3915157     -2.0782805      0.62494571     0.78895605     1.0386198      0.047261295   -0.15899768     0.24363452    -0.078594874    6.4349677      6.4349677      6.4349677      0              0              0              0.82562639   
     26200   0.91931136     0.82576331    -4.34581       -1.6119402      1.0222932      0.7002238      0.95123232     1.4154235      0.34643614     0.33048242     0.41964042     6.434612       6.434612       6.434612       0              0              0              0.82576331   
     26300   1.0023579      0.82659412    -4.4862769     -2.3950809      0.44724511     0.65987078     0.57809991     0.10376465     0.31647892     0.18827148    -0.26601532     6.4324555      6.4324555      6.4324555      0              0              0              0.82659412   
     26400   0.96969252     0.82876666    -4.4322016     -2.1551662      0.62516837     0.81529658     0.73638328     0.32382525    -0.25504939     0.11838641     0.2129589      6.4268299      6.4268299      6.4268299      0              0              0              0.82876666   
     26500   0.94231813     0.83102508    -4.3618117     -2.4531893      0.37941024     0.58588399     0.37133504     0.18101169     0.031457029    0.3723368      0.19519279     6.4210027      6.4210027      6.4210027      0              0              0              0.83102508   
     26600   0.99112456     0.83379309    -4.3811511     -1.5198962      1.0475485      1.2573869      0.76908772     1.1161709      0.22529658     0.26433474    -0.40455698     6.4138894      6.4138894      6.4138894      0              0              0              0.83379309   
     26700   1.0740808      0.83585477    -4.4373052     -1.6670047      0.88694445     0.97323949     0.76518887     0.92240499    -0.23279859    -0.23450132     0.55567618     6.4086116      6.4086116      6.4086116      0              0              0              0.83585477   
     26800   1.0474722      0.83690607    -4.3534708     -1.2456146      1.1750952      0.72943649     1.2034848      1.5923644      0.34146177     0.75645526    -0.046613565    6.405927       6.405927       6.405927       0              0              0              0.83690607   
     26900   1.0556324      0.83706268    -4.3425267     -0.94676211     1.3851358      1.371265       1.6644135      1.1197288     -0.42138692    -0.48507405     0.0818489      6.4055275      6.4055275      6.4055275      0              0              0              0.83706268   
     27000   1.0225633      0.83652523    -4.3073231     -1.2149347      1.1910695      1.4645746      1.1274829      0.98115107     0.40098083    -0.67410778    -0.11843086     6.406899       6.406899       6.406899       0              0              0              0.83652523   
     27100   1.0370109      0.83578834    -4.362958      -1.2953314      1.1548223      1.0572831      1.1784893      1.2286945      0.023819379    0.18478232     0.3704377      6.4087814      6.4087814      6.4087814      0              0              0              0.83578834   
     27200   1.0502834      0.83513263    -4.4463446     -2.2942646      0.44378345     0.34564722     0.87622504     0.10947809     0.44043992     0.094369181    0.3238443      6.4104583      6.4104583      6.4104583      0              0              0              0.83513263   
     27300   0.94953601     0.8353358     -4.3577042     -1.4723538      1.1149211      1.2652599      0.45720699     1.6222963      0.2964201     -0.082942649   -0.079538036    6.4099385      6.4099385      6.4099385      0              0              0              0.8353358    
     27400   0.95683183     0.83538383    -4.3962394     -2.222163       0.56654583     0.062413618    0.60546505     1.0317588     -0.40781135    -0.12779285     0.31462083     6.4098156      6.4098156      6.4098156      0              0              0              0.83538383   
     27500   0.97084493     0.83654467    -4.4156772     -1.8049305      0.88351331     0.93174454     0.48768081     1.2311146      0.24549819    -0.18810786     0.46356793     6.4068494      6.4068494      6.4068494      0              0              0              0.83654467   
     27600   0.99173783     0.83731078    -4.4404988     -1.191671       1.3462885      1.2207604      1.2696112      1.5484939     -0.018854938    0.20119257    -0.1247756      6.4048948      6.4048948      6.4048948      0              0              0              0.83731078   
[...]
    136000   0.1685659      0.26741129    -2.7784297     -5.2351958     -0.65840324    -1.6133171     -0.19006868    -0.17182389     0.24870043     0.10427069    -0.065489577    23.201068      5.9548042      5.9548042      0              0              0              0.26741129   
    137000   0.11303346     0.2647505     -2.9800938     -5.3173256     -0.60313395    -1.5429814     -0.12894952    -0.13747091     0.13311766     0.085315404   -0.020969679    23.434243      5.9548042      5.9548042      0              0              0              0.2647505    
    138000   0.10002517     0.26211619    -3.0677462     -5.293996      -0.56606072    -1.3673388     -0.12296058    -0.20788276     0.17447635     0.069145395   -0.015856774    23.669761      5.9548042      5.9548042      0              0              0              0.26211619   
    139000   0.10990003     0.25950809    -3.0290216     -5.2777879     -0.56921733    -1.4231014     -0.12965958    -0.15489102     0.14161501     0.10074528    -0.051028823    23.907646      5.9548042      5.9548042      0              0              0              0.25950809   
    140000   0.089680849    0.25692594    -3.0213268     -5.6057935     -0.63491431    -1.5202503     -0.15346709    -0.23102559     0.15264088     0.11513617    -0.049891251    24.147922      5.9548042      5.9548042      0              0              0              0.25692594   
    141000   0.10139066     0.25436949    -2.9983662     -5.5824181     -0.63254231    -1.5210617     -0.097434334   -0.27913086     0.1218444      0.023573084   -0.066233131    24.390612      5.9548042      5.9548042      0              0              0              0.25436949   
    142000   0.093537704    0.25183847    -2.9888466     -5.7349926     -0.66067556    -1.5553843     -0.1429449     -0.28369748     0.15793069     0.14206104    -0.0099655751   24.635742      5.9548042      5.9548042      0              0              0              0.25183847   
    143000   0.10238341     0.24933263    -2.9493177     -5.9054043     -0.70468062    -1.6847981     -0.1255007     -0.30374304     0.13446734     0.083160759   -0.018072916    24.883335      5.9548042      5.9548042      0              0              0              0.24933263   
    144000   0.10020709     0.24685173    -2.8935714     -6.1346434     -0.76089376    -1.8384879     -0.15834652    -0.28584683     0.077002494    0.12402112    -0.10668819     25.133417      5.9548042      5.9548042      0              0              0              0.24685173   
    145000   0.11958886     0.24439552    -2.8934216     -5.8424598     -0.69486634    -1.6806485     -0.10163135    -0.3023192      0.061589385    0.10452587    -0.061631165    25.386012      5.9548042      5.9548042      0              0              0              0.24439552   
    146000   0.10648443     0.24196374    -2.8794063     -5.842158      -0.68666662    -1.6883959     -0.082958698   -0.28864527     0.089004395    0.10869986    -0.065746048    25.641146      5.9548042      5.9548042      0              0              0              0.24196374   
    147000   0.098794299    0.23955616    -2.8329137     -5.995072      -0.72076108    -1.7219972     -0.1260235     -0.31426254     0.1109739      0.11653274    -0.0090570342   25.898844      5.9548042      5.9548042      0              0              0              0.23955616   
    148000   0.094349945    0.23717254    -2.7670368     -6.5693894     -0.85019237    -1.962129      -0.21972217    -0.36872592     0.096227123    0.11031377    -0.013419712    26.159131      5.9548042      5.9548042      0              0              0              0.23717254   
    149000   0.10102855     0.23481263    -2.6801162     -6.2678315     -0.79804283    -2.0240115     -0.12234224    -0.24777469     0.10319133     0.12745295    -0.063222063    26.422035      5.9548042      5.9548042      0              0              0              0.23481263   
    150000   0.19996457     0.23247621    -3.0022416     -4.2512454     -0.32704138    -0.86092243    -0.038647654   -0.081554064    0.10535339     0.10022938    -0.072620576    26.687581      5.9548042      5.9548042      0              0              0              0.23247621   
    151000   0.094651441    0.23016303    -3.1969299     -4.6373324     -0.33094719    -0.65506023    -0.12176711    -0.21601423     0.042823584   -0.0022928857  -0.0036449618   26.955795      5.9548042      5.9548042      0              0              0              0.23016303   
    152000   0.10266552     0.22787287    -3.2675023     -4.4334459     -0.27327588    -0.514314      -0.099043314   -0.20647032     0.074673835    0.055441922   -0.027851536    27.226706      5.9548042      5.9548042      0              0              0              0.22787287   
    153000   0.1018913      0.22560549    -3.2171932     -4.175858      -0.22780773    -0.54933042    -0.026268942   -0.10782384     0.04334896     0.086963879   -0.04686196     27.500339      5.9548042      5.9548042      0              0              0              0.22560549   
    154000   0.097086151    0.22336068    -3.2316225     -4.406933      -0.26807578    -0.61554097    -0.05736257    -0.13132379     0.039793263    0.082024722   -0.022317899    27.776722      5.9548042      5.9548042      0              0              0              0.22336068   
    155000   0.10760039     0.22113821    -3.2859352     -4.2500519     -0.22610585    -0.37414605    -0.076931133   -0.22724035    -0.0040164943   0.016839696   -0.022889215    28.055882      5.9548042      5.9548042      0              0              0              0.22113821   
    156000   0.09306093     0.21893784    -3.361137      -3.60513       -0.076207568   -0.041358197   -0.061052941   -0.12621157     0.0012778012   0.020790169    0.021915269    28.337849      5.9548042      5.9548042      0              0              0              0.21893784   
    157000   0.11349091     0.21675938    -3.4292287     -3.5948367     -0.066011729    0.0020232941  -0.0075899881  -0.19246849    -0.0098836872  -0.06263913     0.010042091    28.622649      5.9548042      5.9548042      0              0              0              0.21675938   
    158000   0.10029887     0.21460259    -3.5221835     -3.7136898     -0.066566271   -0.040128379   -0.040092459   -0.11947798     0.024728613   -0.020806596    0.001834317    28.910311      5.9548042      5.9548042      0              0              0              0.21460259   
    159000   0.099219921    0.21246725    -3.5840148     -3.7052653     -0.052022848    0.037256804   -0.063188029   -0.13013732     0.015637289    0.024033301    0.0021190928   29.200865      5.9548042      5.9548042      0              0              0              0.21246725   
    160000   0.1132019      0.21035317    -3.6963805     -3.9264962     -0.076314123   -0.014331713   -0.01945554    -0.19515512     0.019843185   -0.038283663   -0.016751851    29.494338      5.9548042      5.9548042      0              0              0              0.21035317   
    161000   0.10256272     0.20826012    -3.7425707     -3.7943437     -0.038783311    0.071129775   -0.037855058   -0.14962465    -0.0021233579   0.0096187025  -0.018605483    29.790761      5.9548042      5.9548042      0              0              0              0.20826012   
    162000   0.099312799    0.2061879     -3.7629198     -4.4956525     -0.16512972    -0.105182      -0.16050967    -0.22969749    -0.024840692    0.0080955835   0.0058225359   30.090163      5.9548042      5.9548042      0              0              0              0.2061879    
    163000   0.10847913     0.20413629    -3.8318017     -4.3339056     -0.12322576    -0.048585695   -0.12279109    -0.19830049     0.0097802095   0.012220788    0.0033520228   30.392574      5.9548042      5.9548042      0              0              0              0.20413629   
    164000   0.091159061    0.2021051     -3.849088      -4.2315155     -0.095261759   -0.020249198   -0.099973169   -0.16556291    -0.0009378544   0.044209711    0.017367412    30.698025      5.9548042      5.9548042      0              0              0              0.2021051    
    165000   0.1090769      0.20009412    -3.8952245     -4.0793941     -0.063114577    0.077712684   -0.11489994    -0.15215647    -0.018005442   -0.012420739    0.014673165    31.006545      5.9548042      5.9548042      0              0              0              0.20009412   
    166000   0.099374473    0.19810315    -3.901264      -4.1922457     -0.079114851   -0.013277586   -0.082020294   -0.14204667     0.051744191   -0.020208635   -0.049724088    31.318166      5.9548042      5.9548042      0              0              0              0.19810315   
    167000   0.10293714     0.196132      -3.9265261     -4.3078885     -0.09539077     0.018036971   -0.17502494    -0.12918434     0.00098781724 -0.034168182    0.065804579    31.632919      5.9548042      5.9548042      0              0              0              0.196132     
    168000   0.1095581      0.19418045    -3.9113733     -4.3698259     -0.10979459    -0.064617069   -0.12168806    -0.14307863    -0.0033858862   0.029304731   -0.033963711    31.950835      5.9548042      5.9548042      0              0              0              0.19418045   
    169000   0.096096041    0.19224832    -3.9452366     -4.3380314     -0.093715484   -0.098292772   -0.0692182     -0.11363548    -0.026354451    0.0016555188   0.011862255    32.271946      5.9548042      5.9548042      0              0              0              0.19224832   
    170000   0.10590662     0.19033542    -3.9706094     -3.9774782     -0.028538957   -0.014198323   -0.072181834    0.00076328596 -0.0051774973   0.035423148   -0.046731149    32.596285      5.9548042      5.9548042      0              0              0              0.19033542   
    171000   0.10456506     0.18844155    -4.022782      -3.963371      -0.016557565   -0.0038756668  -0.05489569     0.0090986624  -0.012208187   -0.046418946   -0.027830266    32.923883      5.9548042      5.9548042      0              0              0              0.18844155   
    172000   0.0938056      0.18656652    -4.0640938     -4.4497903     -0.089162065   -0.031389456   -0.14880052    -0.087296216   -0.038025046    0.019497043    0.010467715    33.254773      5.9548042      5.9548042      0              0              0              0.18656652   
    173000   0.10363093     0.18471016    -4.068113      -4.004587      -0.01530461     0.045363363   -0.034256539   -0.057020656    0.0045029051  -0.0087735214  -0.031156136    33.588989      5.9548042      5.9548042      0              0              0              0.18471016   
    174000   0.097478113    0.18287226    -4.060284      -4.3482707     -0.072063775    0.035959397   -0.17784182    -0.074308906   -0.015121831    0.011282541   -0.058588754    33.926564      5.9548042      5.9548042      0              0              0              0.18287226   
    175000   0.10323696     0.18105265    -4.1081258     -4.1761525     -0.036557463    0.0013137385  -0.083127296   -0.027858833    0.0064546703  -0.0148625     -0.0020437207   34.267532      5.9548042      5.9548042      0              0              0              0.18105265   
    176000   0.10411798     0.17925115    -4.0933027     -3.9156367      0.0036290074   0.031786505    0.0073864476  -0.02828593     0.0003468948  -0.017777654    0.019421083    34.611926      5.9548042      5.9548042      0              0              0              0.17925115   
    177000   0.097600555    0.17746757    -4.1345975     -4.324181      -0.054087659    0.010273373   -0.082431588   -0.090104762   -0.013227151    0.015823775    0.01510259     34.959782      5.9548042      5.9548042      0              0              0              0.17746757   
    178000   0.11349588     0.17570174    -4.1689311     -4.5058893     -0.080878841   -0.037372174   -0.10435685    -0.1009075     -0.020837948   -0.0017511171   0.042187193    35.311134      5.9548042      5.9548042      0              0              0              0.17570174   
    179000   0.10221283     0.17395347    -4.2570877     -4.4740711     -0.058438251    0.046745893   -0.15736256    -0.064698087   -0.017564867   -0.027447238   -0.002208262    35.666016      5.9548042      5.9548042      0              0              0              0.17395347   
    180000   0.10212134     0.17222261    -4.3511839     -4.3547318     -0.024418661    0.058188412   -0.13321425     0.0017698563   0.01662993    -0.01186097    -0.017267534    36.024466      5.9548042      5.9548042      0              0              0              0.17222261   
    181000   0.1078378      0.17050897    -4.3671099     -4.8232424     -0.095652505   -0.038059717   -0.11471786    -0.13417993    -0.015345906    0.030139484    0.015735499    36.386518      5.9548042      5.9548042      0              0              0              0.17050897   
    182000   0.09925298     0.16881237    -4.3994288     -4.4921859     -0.0369687      0.10197794    -0.12091219    -0.091971853    0.0063070162   0.063753443    0.0048412345   36.752208      5.9548042      5.9548042      0              0              0              0.16881237   
    183000   0.10435863     0.16713266    -4.3892077     -4.2600957     -0.0040481367   0.026921795    0.017453826   -0.056520031   -0.013471639   -0.0065633706  -0.021813776    37.121574      5.9548042      5.9548042      0              0              0              0.16713266   
    184000   0.10288784     0.16546966    -4.3990182     -4.6903439     -0.066922821   -0.016971196   -0.10256954    -0.081227731    5.8098584e-05  0.037220767   -0.0090149174   37.494652      5.9548042      5.9548042      0              0              0              0.16546966   
    185000   0.099808396    0.16382321    -4.4085054     -4.7310834     -0.070226834   -0.012890354   -0.14015701    -0.057633137   -0.016492517   -0.032676398   -0.0023360992   37.87148       5.9548042      5.9548042      0              0              0              0.16382321   
    186000   0.11047352     0.16219314    -4.4181349     -4.594215      -0.050274242    0.053096274   -0.1460589     -0.057860096    0.026173436    0.053338323    0.0064042767   38.252094      5.9548042      5.9548042      0              0              0              0.16219314   
    187000   0.10646792     0.1605793     -4.4894045     -5.0419015     -0.10385107    -0.033122572   -0.16550983    -0.11292082    -0.0023446731   0.0019153115  -0.023445581    38.636534      5.9548042      5.9548042      0              0              0              0.1605793    
    188000   0.096240995    0.15898151    -4.5314512     -4.8017447     -0.059825207    0.021233211   -0.13528796    -0.06542087     0.029455218   -0.011462565    0.012370079    39.024838      5.9548042      5.9548042      0              0              0              0.15898151   
    189000   0.098516965    0.15739961    -4.5644164     -5.0508591     -0.090644905    0.032318866   -0.20658525    -0.097668334   -0.035619384    0.031394681    0.02779168     39.417044      5.9548042      5.9548042      0              0              0              0.15739961   
    190000   0.10467021     0.15583346    -4.5519655     -5.0917864     -0.098605918   -0.01879553    -0.16854006    -0.10848216    -0.006101793    0.035176508    0.010879066    39.813192      5.9548042      5.9548042      0              0              0              0.15583346   
    191000   0.096133959    0.15428289    -4.5719263     -5.2845029     -0.12006807    -0.037067162   -0.16457502    -0.15856203     0.038989952   -0.012739222   -0.026418814    40.213321      5.9548042      5.9548042      0              0              0              0.15428289   
    192000   0.099623767    0.15274775    -4.5945866     -5.4541255     -0.14000405    -0.0032641714  -0.22149154    -0.19525645     0.017456996   -0.0096148033  -0.01027795     40.617472      5.9548042      5.9548042      0              0              0              0.15274775   
    193000   0.091369033    0.15122789    -4.6445381     -5.3968688     -0.12217824     0.00188602    -0.24066181    -0.12775894    -0.017847979    0.026540584   -0.022383174    41.025684      5.9548042      5.9548042      0              0              0              0.15122789   
    194000   0.11051151     0.14972314    -4.6950364     -5.3476027     -0.11127216    -0.0061453277  -0.19106067    -0.13661049    -0.026634102    0.026366116    0.018670784    41.437999      5.9548042      5.9548042      0              0              0              0.14972314   
    195000   0.092829839    0.14823337    -4.6892        -5.4308526     -0.11861379     0.0098331889  -0.18501878    -0.18065578     0.024468247    0.0089035944  -0.022924905    41.854458      5.9548042      5.9548042      0              0              0              0.14823337   
    196000   0.10177739     0.14675843    -4.7083667     -5.7513639     -0.15941967    -0.025000106   -0.22422732    -0.22903158     0.032080698    0.0028794943  -0.019080611    42.275102      5.9548042      5.9548042      0              0              0              0.14675843   
    197000   0.10625639     0.14529816    -4.6794233     -5.7235773     -0.15886922     0.012173521   -0.23430361    -0.25447757     0.050932281    0.0067018957  -0.011446839    42.699974      5.9548042      5.9548042      0              0              0              0.14529816   
    198000   0.098810928    0.14385241    -4.7015668     -6.0401237     -0.19433574    -0.070138416   -0.24667897    -0.26618985    -0.0034046404   0.0013810681  -0.013470896    43.129116      5.9548042      5.9548042      0              0              0              0.14385241   
    199000   0.095532152    0.14242106    -4.6957678     -5.3997452     -0.10960714    -0.004167695   -0.168068      -0.15658572    -0.026580757   -0.015487919   -0.0027036912   43.562571      5.9548042      5.9548042      0              0              0              0.14242106   
    200000   0.085184268    0.14100395    -4.7122338     -5.7029502     -0.14329256    -0.013609506   -0.21004139    -0.20622679    -0.019702018   -0.0055649376  -0.061691715    44.000382      5.9548042      5.9548042      0              0              0              0.14100395   
Loop time of 25.3988 on 2 procs for 200000 steps with 200 atoms

Performance: 1360696.783 tau/day, 7874.403 timesteps/s
81.9% CPU use with 2 MPI tasks x 1 OpenMP threads

MPI task timing breakdown:
Section |  min time  |  avg time  |  max time  |%varavg| %total
---------------------------------------------------------------
Pair    | 3.9856     | 5.094      | 6.2024     |  49.1 | 20.06
Bond    | 0.20646    | 0.27088    | 0.3353     |  12.4 |  1.07
Neigh   | 0.16174    | 0.16178    | 0.16183    |   0.0 |  0.64
Comm    | 4.4192     | 5.5083     | 6.5973     |  46.4 | 21.69
Output  | 0.032644   | 0.033367   | 0.034089   |   0.4 |  0.13
Modify  | 13.874     | 13.932     | 13.99      |   1.5 | 54.85
Other   |            | 0.3987     |            |       |  1.57

Nlocal:            100 ave         109 max          91 min
Histogram: 1 0 0 0 0 0 0 0 0 1
Nghost:          624.5 ave         660 max         589 min
Histogram: 1 0 0 0 0 0 0 0 0 1
Neighs:         5725.5 ave        6564 max        4887 min
Histogram: 1 0 0 0 0 0 0 0 0 1

Total # of neighbors = 11451
Ave neighs/atom = 57.255
Ave special neighs/atom = 9.44
Neighbor list builds = 564
Dangerous builds = 0
System init for write_data ...
Generated 0 of 1 mixed pair_coeff terms from geometric mixing rule
WARNING: Not all mixed pair coeffs generated from mixing. Use write_data with 'pair ij' option to store all pair coeffs. (src/write_data.cpp:309)
Total wall time: 0:00:25
