LAMMPS (23 Jun 2022)
OMP_NUM_THREADS environment is not set. Defaulting to 1 thread. (src/comm.cpp:98)
  using 1 OpenMP thread(s) per MPI task
Reading data file ...
  orthogonal box = (96.856646 96.856646 96.856646) to (103.14335 103.14335 103.14335)
  1 by 1 by 2 MPI processor grid
  reading atoms ...
  200 atoms
  scanning bonds ...
  4 = max bonds/atom
  reading bonds ...
  225 bonds
Finding 1-2 1-3 1-4 neighbors ...
  special bond factors lj:    0        0        0       
  special bond factors coul:  0        0        0       
     4 = max # of 1-2 neighbors
     4 = max # of 1-3 neighbors
    10 = max # of 1-4 neighbors
    12 = max # of special neighbors
  special bonds CPU = 0.000 seconds
  read_data CPU = 0.004 seconds
Finding 1-2 1-3 1-4 neighbors ...
  special bond factors lj:    0        1        1       
  special bond factors coul:  0        0        0       
     4 = max # of 1-2 neighbors
     4 = max # of 1-3 neighbors
    10 = max # of 1-4 neighbors
    12 = max # of special neighbors
  special bonds CPU = 0.000 seconds
Generated 0 of 1 mixed pair_coeff terms from geometric mixing rule
Neighbor list info ...
  update every 1 steps, delay 0 steps, check yes
  max neighbors/atom: 2000, page size: 100000
  master list distance cutoff = 5.5
  ghost atom cutoff = 5.5
  binsize = 2.75, bins = 3 3 3
  1 neighbor lists, perpetual/occasional/extra = 1 0 0
  (1) pair lj/cut, perpetual
      attributes: half, newton on
      pair build: half/bin/newton
      stencil: half/bin/3d
      bin: standard
Setting up Verlet run ...
  Unit style    : lj
  Current step  : 0
  Time step     : 0.002
WARNING: Inconsistent image flags (src/domain.cpp:819)
Per MPI rank memory allocation (min/avg/max) = 8.637 | 8.637 | 8.637 Mbytes
   Step          Temp         Density         PotEng        Enthalpy        Press           Pxx            Pyy            Pzz            Pxy            Pxz            Pyz             Lx             Ly             Lz             Xy             Yz             Xz          Density    
         0   1.5            0.88542746    -3.8184883      0.99084624     2.069151       1.799729       2.3736384      2.0340857      0.69483706     0.0050569963  -0.2229751      6.2867072      6.2867072      6.2867072      0              0              0              0.88542746   
      1000   1.5563616      0.79727596    -2.9011919      0.78069841     0.98501316     0.77487771     1.3652397      0.81492208     0.6466952      0.29857547    -0.42067119     6.510355       6.510355       6.510355       0              0              0              0.79727596   
      2000   1.6010067      0.75010358    -2.6457452      1.1295122      0.94496343     0.83309729     0.22743845     1.7743545      0.080259585    0.04194016    -0.41598878     6.6440641      6.6440641      6.6440641      0              0              0              0.75010358   
      3000   1.3866114      0.80694885    -2.6660093      1.2354944      1.3439265      1.1616543      1.4439616      1.4261637     -0.51225152     0.21746553     0.037600908    6.4842372      6.4842372      6.4842372      0              0              0              0.80694885   
      4000   1.5085709      0.81563324    -2.7826774      2.028167       1.8976837      2.2916301      1.4968421      1.9045787     -0.31792589    -0.64998238    -0.32044556     6.4611415      6.4611415      6.4611415      0              0              0              0.81563324   
      5000   1.44686        0.8124097     -2.8623752      1.8536569      1.888183       2.1772358      1.7137455      1.7735678      0.27300982     0.31255707     0.31029123     6.4696759      6.4696759      6.4696759      0              0              0              0.8124097    
      6000   1.4131836      0.82499754    -3.177542       0.25873304     0.99532096     0.49506851     0.64595369     1.8449407     -0.010896871   -0.41052547    -0.44327931     6.4366023      6.4366023      6.4366023      0              0              0              0.82499754   
      7000   1.2803507      0.82397923    -3.1134382      0.11150103     0.98429244     0.57076936     0.77888848     1.6032195      0.0014098038  -0.50636762    -0.57156188     6.4392527      6.4392527      6.4392527      0              0              0              0.82397923   
      8000   1.504595       0.79089163    -2.9071669      0.47596781     0.81787301     0.34955454     0.73926974     1.3647948      0.81947047    -0.51254063    -0.46886112     6.527826       6.527826       6.527826       0              0              0              0.79089163   
      9000   1.3537901      0.80589358    -2.9853708     -0.72837823     0.1732384      0.45241801     0.32790644    -0.26060924     0.20179253     0.16895345     0.3213294      6.4870662      6.4870662      6.4870662      0              0              0              0.80589358   
     10000   1.2995108      0.81673037    -3.0187948      0.61034582     1.2545132      0.88711414     1.4909575      1.385468       0.804696       0.18713512    -0.35355676     6.4582471      6.4582471      6.4582471      0              0              0              0.81673037   
     11000   1.3830213      0.77883606    -2.803272       0.17879551     0.64990913     0.96786271     0.1636437      0.81822098    -0.069484632   -0.58523117     0.45727084     6.561335       6.561335       6.561335       0              0              0              0.77883606   
     12000   1.4211829      0.8289277     -3.0284284      1.2051154      1.591864       1.8281642      1.1053881      1.8420396      1.2985009     -0.32404684    -0.53756732     6.4264136      6.4264136      6.4264136      0              0              0              0.8289277    
     13000   1.2695371      0.79643608    -2.9768274     -0.4199608      0.47936948     0.67232528     0.93489095    -0.16910778    -0.55823411     0.94289767    -0.65977627     6.5126427      6.5126427      6.5126427      0              0              0              0.79643608   
     14000   1.3430519      0.82711456    -3.1313144      0.057166832    0.89025811     0.89804014     0.5510259      1.2217083      0.12395418     0.49171595     0.46621133     6.4311061      6.4311061      6.4311061      0              0              0              0.82711456   
     15000   1.1745868      0.83165751    -3.1794465     -0.038198081    1.0495349      0.77801292     1.3389946      1.0315971      0.17354095     0.97061656     0.16721377     6.4193746      6.4193746      6.4193746      0              0              0              0.83165751   
     16000   1.2739843      0.78402361    -2.761557      -0.55071716     0.22053754     0.039185649    0.49264663     0.12978034     0.34075235    -0.46336042     0.030721789    6.5468318      6.5468318      6.5468318      0              0              0              0.78402361   
     17000   1.2907611      0.84999186    -3.1319613      2.7445059      3.0522483      3.4534351      2.3028042      3.4005055      0.18894274    -0.79599232     0.17678905     6.3728834      6.3728834      6.3728834      0              0              0              0.84999186   
     18000   1.3879444      0.82939305    -3.2051088      1.8324231      2.236364       2.1821675      2.1502537      2.3766707      0.31964666     0.21464644    -0.61444682     6.4252115      6.4252115      6.4252115      0              0              0              0.82939305   
     19000   1.3961389      0.80566261    -2.8577724      1.2758652      1.5013891      1.1556142      1.8020294      1.5465237     -0.14887226     0.24762581    -0.29159374     6.487686       6.487686       6.487686       0              0              0              0.80566261   
     20000   1.1999643      0.83819039    -3.1113007      0.38210478     1.2972587      1.2496771      0.86514265     1.7769565      0.13918154    -0.19059529     0.062408343    6.4026535      6.4026535      6.4026535      0              0              0              0.83819039   
     21000   1.3523932      0.85011009    -3.1350896      0.99250165     1.6300045      1.9718198      1.824138       1.0940556      0.92836311     0.22859829     0.14602602     6.3725879      6.3725879      6.3725879      0              0              0              0.85011009   
     22000   1.2580702      0.79759624    -2.9603948      0.80114695     1.365972       1.7461861      1.4798827      0.87184724    -0.68536374     0.48358466    -0.23979712     6.5094834      6.5094834      6.5094834      0              0              0              0.79759624   
     23000   1.1846458      0.85087204    -3.1858572      0.60926187     1.5679523      1.3040145      0.973865       2.4259773      0.55101555     0.075064263    0.054763546    6.3706852      6.3706852      6.3706852      0              0              0              0.85087204   
     24000   1.286094       0.82442592    -3.3075694      0.2797012      1.2499611      2.3265239      1.0214337      0.40192572    -0.62583276     0.1625428     -0.17707045     6.4380896      6.4380896      6.4380896      0              0              0              0.82442592   
     25000   1.3232561      0.84013323    -3.0848614      1.8688843      2.2750701      2.1110489      1.8902938      2.8238675     -1.0207211     -0.22686233    -0.35106451     6.3977143      6.3977143      6.3977143      0              0              0              0.84013323   
     26000   1.2596576      0.81976169    -3.3883628     -0.47613165     0.76922875     0.86027002     0.26788878     1.1795274     -0.25556758    -0.24368559     0.22041697     6.4502768      6.4502768      6.4502768      0              0              0              0.81976169   
     27000   1.1916851      0.84499379    -3.231186       0.018995275    1.1304414      1.3178658      1.0955853      0.9778731     -0.23414099     0.10529438     0.40877386     6.3854237      6.3854237      6.3854237      0              0              0              0.84499379   
     28000   1.0747886      0.84374866    -3.4414152     -1.714303       0.094338869   -0.40585571     0.69130466    -0.0024323343   0.55202622    -0.6368249      0.320373       6.3885632      6.3885632      6.3885632      0              0              0              0.84374866   
     29000   1.2340621      0.83587325    -3.3363748     -0.44801388     0.79523711     0.34018762     0.89119519     1.1543285      0.32458336    -0.12532464    -0.0077218257   6.4085644      6.4085644      6.4085644      0              0              0              0.83587325   
     30000   1.248055       0.83026964    -3.1414799      0.93094235     1.6678608      1.8217923      1.5937853      1.5880049      0.70788265    -0.11096275     0.24213713     6.4229495      6.4229495      6.4229495      0              0              0              0.83026964   
     31000   1.1762279      0.8548926     -3.3219587      0.70094529     1.7621542      2.206049       1.5957164      1.4846973      0.16175204     0.20352339     0.10105887     6.3606824      6.3606824      6.3606824      0              0              0              0.8548926    
     32000   1.1074553      0.84574524    -3.3565867      0.2773537      1.523159       1.681827       2.1737203      0.7139298      0.25550922    -0.30958508    -0.11073517     6.383532       6.383532       6.383532       0              0              0              0.84574524   
     33000   1.2260962      0.83022405    -3.3635867      0.26902657     1.3605596      1.3414461      1.5317763      1.2084564     -0.22576087    -0.17700983     0.18124842     6.4230671      6.4230671      6.4230671      0              0              0              0.83022405   
     34000   1.1008301      0.83206802    -3.3539417     -0.79398566     0.69361731     0.77566679     0.66165118     0.64353397    -0.025327659    0.93454681     0.25193758     6.4183188      6.4183188      6.4183188      0              0              0              0.83206802   
     35000   1.2500128      0.84411403    -3.3937678     -0.30721042     0.93690007     0.80831291     1.0553364      0.94705091    -0.18761859    -0.32131914    -0.70155986     6.3876413      6.3876413      6.3876413      0              0              0              0.84411403   
     36000   1.1729392      0.85869228    -3.4767834     -0.16041237     1.2222776      1.1257052      1.0934143      1.4477134      0.13788155    -0.27382897    -0.42108061     6.3512865      6.3512865      6.3512865      0              0              0              0.85869228   
     37000   1.2846706      0.8659151     -3.5776864      0.28947147     1.5348637      1.9590161      1.3931244      1.2524506     -0.13089801    -0.059626743    0.063684034    6.333578       6.333578       6.333578       0              0              0              0.8659151    
     38000   1.1171232      0.82703239    -3.4286861     -0.57491061     0.89204399     0.95316927     1.1346566      0.58830605     0.82642658    -0.14069498    -0.017696959    6.431319       6.431319       6.431319       0              0              0              0.82703239   
     39000   1.073713       0.85567208    -3.4948205     -0.39157193     1.1673949      0.99096035     1.0816972      1.4295272     -0.064970814    0.73457991    -0.22277261     6.3587503      6.3587503      6.3587503      0              0              0              0.85567208   
     40000   1.103618       0.87759697    -3.5961571      0.0042399713   1.5583308      3.3165245      0.75295216     0.60551562     0.13041227     0.19296539    -0.063996896    6.3053499      6.3053499      6.3053499      0              0              0              0.87759697   
     41000   1.0956749      0.86528511    -3.4578114     -0.4125379      1.1091215      0.45847816     1.6459184      1.222968       0.21947696     0.8350827     -0.070313198    6.3351147      6.3351147      6.3351147      0              0              0              0.86528511   
     42000   1.0664146      0.8751124     -3.6172789     -0.89816384     0.89698328     1.6295573      0.74538971     0.3160028     -0.6622385      0.37175882    -0.17320211     6.3113115      6.3113115      6.3113115      0              0              0              0.8751124    
     43000   1.0943133      0.83389206    -3.5887626     -2.0561892     -0.076330804    0.51568793    -0.27557379    -0.46910655    -0.36226672    -0.48021349    -0.24566598     6.4136356      6.4136356      6.4136356      0              0              0              0.83389206   
     44000   1.092499       0.89422002    -3.7378025     -0.28342136     1.4826382      1.7503549      1.1053633      1.5921964      0.39002199    -0.21535095     0.21465607     6.2660343      6.2660343      6.2660343      0              0              0              0.89422002   
     45000   1.1045238      0.85129701    -3.6035665     -0.50097611     1.1253285      1.2604748      1.1260661      0.98944453    -0.27756381     0.7020202     -0.61834989     6.3696249      6.3696249      6.3696249      0              0              0              0.85129701   
     46000   1.0297103      0.88295295    -3.7512482     -0.36855481     1.4816359      2.063994       0.67696546     1.7039481     -0.26694947    -0.36109121     0.14936192     6.2925746      6.2925746      6.2925746      0              0              0              0.88295295   
     47000   1.0154411      0.89246324    -3.6452832     -0.2854811      1.4963008      0.66927462     1.5749041      2.2447237     -0.36361516     0.66310846     0.04511707     6.270143       6.270143       6.270143       0              0              0              0.89246324   
     48000   0.95099193     0.86144974    -3.7310771     -1.6022029      0.55564976     0.95500438     0.45319332     0.25875157     0.30269036     0.36619859     0.14850821     6.3445026      6.3445026      6.3445026      0              0              0              0.86144974   
     49000   0.96265867     0.88014872    -3.764833      -0.87940777     1.1591216      0.54375164     1.8339511      1.0996621      0.2947039      0.20129155    -0.36582955     6.2992504      6.2992504      6.2992504      0              0              0              0.88014872   
     50000   1.0714829      0.8800802     -3.6998188      0.347819       1.9589381      1.6440894      1.7865583      2.4461667     -0.23807043    -0.5356595     -0.060790977    6.2994139      6.2994139      6.2994139      0              0              0              0.8800802    
     51000   1.0416375      0.89216815    -3.802875      -1.2056565      0.84559249     0.91975686     0.96597077     0.65104983    -0.13438172    -0.30994293     0.22114572     6.2708343      6.2708343      6.2708343      0              0              0              0.89216815   
     52000   0.9706554      0.89215419    -3.9073521     -1.1408028      1.0688382      1.1412811      0.453821       1.6114124     -0.065935901   -0.29442166    -0.05374904     6.270867       6.270867       6.270867       0              0              0              0.89215419   
     53000   0.89021106     0.87184895    -3.6261298     -0.73144177     1.2412339      1.5374051      0.22091372     1.965383       0.3871295     -0.31596493    -0.4809592      6.3191764      6.3191764      6.3191764      0              0              0              0.87184895   
     54000   0.91581811     0.90054916    -3.9664526     -1.8331302      0.62748947     0.065152383    0.56980408     1.2475119      0.39067739     1.1245217     -0.26069906     6.2513203      6.2513203      6.2513203      0              0              0              0.90054916   
     55000   1.0453232      0.90307044    -4.0668956     -1.7620094      0.61141271     0.54720444     0.82107893     0.46595474     0.5833987     -0.32476919     0.21187478     6.2454972      6.2454972      6.2454972      0              0              0              0.90307044   
     56000   0.98410124     0.90626004    -4.0901591     -1.8879037      0.60429772     0.80838646     0.77205475     0.23245195     0.18291493    -0.38818931    -0.68497594     6.2381615      6.2381615      6.2381615      0              0              0              0.90626004   
     57000   0.87096464     0.93349876    -4.1781319     -1.1233752      1.4892207      1.4717901      1.8020747      1.1937973     -0.22980853    -0.27264804     0.00077249839  6.1768868      6.1768868      6.1768868      0              0              0              0.93349876   
     58000   0.86751887     0.8895381     -3.9461609     -2.0837887      0.45900187     0.55126825    -0.10245173     0.92818908    -0.24090852    -0.32018093     0.19679683     6.2770084      6.2770084      6.2770084      0              0              0              0.8895381    
     59000   0.82993394     0.91204101    -4.0250234     -1.4687023      1.0924963      1.3473807      0.89245879     1.0376494      0.068638221    0.45623267     0.23854754     6.2249534      6.2249534      6.2249534      0              0              0              0.91204101   
     60000   0.98355929     0.90282786    -4.066861      -1.6679961      0.76404078     0.76877292     1.3532854      0.17006407    -0.58359086    -0.19628548    -0.77160423     6.2460565      6.2460565      6.2460565      0              0              0              0.90282786   
     61000   0.90486264     0.92349348    -4.215938      -1.5000178      1.1463179      0.95603825     1.5877988      0.89511664    -0.20361764    -0.19645847     0.12177334     6.1991139      6.1991139      6.1991139      0              0              0              0.92349348   
     62000   0.83508386     0.93479522    -4.1243187     -1.901379       0.82990873     0.65358127     0.63776419     1.1983807     -0.13895733     0.18511847     0.26235612     6.17403        6.17403        6.17403        0              0              0              0.93479522   
     63000   0.93753701     0.89814398    -4.0815199     -1.9487166      0.5989227      0.51978238     0.63753835     0.63944738     0.23704565     0.11729927    -0.69909798     6.2568956      6.2568956      6.2568956      0              0              0              0.89814398   
     64000   0.786923       0.90390622    -4.012708      -1.5294369      1.0754747      0.85902576     1.567049       0.80034923     0.19690444    -0.04194462    -0.13444156     6.2435717      6.2435717      6.2435717      0              0              0              0.90390622   
     65000   0.86207805     0.91730057    -4.2291534     -1.6097622      1.1113844      0.73497182     1.7597297      0.83945173    -0.021655993    0.10522016     0.19273588     6.2130332      6.2130332      6.2130332      0              0              0              0.91730057   
     66000   0.85905912     0.91327148    -4.0199614     -0.48588092     1.8696616      1.5461968      2.1124103      1.9503777     -0.28274252     0.45158647    -0.12322417     6.2221565      6.2221565      6.2221565      0              0              0              0.91327148   
     67000   0.81382849     0.92468298    -4.1492339     -1.1636542      1.4886897      1.2687954      2.2559846      0.94128928    -0.45937936    -0.030773268   -0.6103173      6.1964546      6.1964546      6.1964546      0              0              0              0.92468298   
     68000   0.842435       0.92096911    -4.3344489     -2.6948124      0.32008054     0.60482631    -0.42714444     0.78255974    -0.44563638     0.43978493    -0.07386252     6.2047726      6.2047726      6.2047726      0              0              0              0.92096911   
     69000   0.71698491     0.91251612    -4.2408395     -3.0477964      0.10198865    -0.36355026    -0.0038354456   0.67335165     0.093514018    0.41492293     0.083745669    6.2238729      6.2238729      6.2238729      0              0              0              0.91251612   
     70000   0.851355       0.93829515    -4.3177828     -1.7992844      1.0644115      0.3153622      1.1619064      1.7159659     -0.31613988    -0.22317271     0.19546226     6.1663438      6.1663438      6.1663438      0              0              0              0.93829515   
     71000   0.86609151     0.92943241    -4.4106962     -2.566394       0.46611929     0.00065811354  0.77468755     0.62301222     0.35154263    -0.23217441    -0.33135714     6.1858819      6.1858819      6.1858819      0              0              0              0.92943241   
     72000   0.7844748      0.92543262    -4.3185034     -2.1464448      0.84233717     0.64924983     0.67442761     1.2033341      0.23772841     0.83323187    -0.22355615     6.194781       6.194781       6.194781       0              0              0              0.92543262   
     73000   0.75504752     0.9450699     -4.5148308     -2.4398828      0.81451247     0.81494725     0.87764317     0.75094698     0.21983816     0.18982633    -0.031686346    6.151574       6.151574       6.151574       0              0              0              0.9450699    
     74000   0.79789125     0.92333373    -4.3387304     -2.8250725      0.27096089     0.41514695     0.75520395    -0.35746823    -0.10400438    -0.32235155    -0.075685427    6.1994714      6.1994714      6.1994714      0              0              0              0.92333373   
     75000   0.73824343     0.94096076    -4.3802645     -1.436397       1.5757151      2.3928289      1.3056621      1.0286543      0.45351351    -0.079092944    0.23329786     6.1605155      6.1605155      6.1605155      0              0              0              0.94096076   
     76000   0.82980302     0.94320255    -4.3973824     -2.0592297      0.94292102     1.2386289      0.77291335     0.81722078     0.69466277    -0.017347375    0.0034125842   6.1556309      6.1556309      6.1556309      0              0              0              0.94320255   
     77000   0.72406407     0.93752932    -4.4085326     -1.9547669      1.1702923      1.2116514      0.83215601     1.4670695     -0.020171574    0.25701382    -0.067579017    6.1680224      6.1680224      6.1680224      0              0              0              0.93752932   
     78000   0.6760427      0.97067265    -4.5692261     -1.6390042      1.6953488      1.9028233      1.491816       1.6914072     -0.050234737    0.54905038    -0.45908808     6.0970061      6.0970061      6.0970061      0              0              0              0.97067265   
     79000   0.67660424     0.95371509    -4.6286081     -3.33962        0.2420323      0.68180566    -0.42720121     0.47149247     0.22583518     0.19278427     0.64103846     6.13293        6.13293        6.13293        0              0              0              0.95371509   
     80000   0.71375235     0.97205478    -4.7246515     -2.5691446      0.96342256     0.80168734     0.86432707     1.2242533     -0.025942463    0.34421407    -0.19951925     6.094115       6.094115       6.094115       0              0              0              0.97205478   
     81000   0.70273004     0.96107805    -4.644676      -2.4982212      0.9590075      1.270828       0.43981194     1.1663825     -0.085999885    0.42577077    -0.50196264     6.1172281      6.1172281      6.1172281      0              0              0              0.96107805   
     82000   0.63255701     0.97163661    -4.7028135     -2.7337886      0.90533001     1.7097102      0.40434278     0.60193703    -0.039975894    0.37853036    -0.08448998     6.0949891      6.0949891      6.0949891      0              0              0              0.97163661   
     83000   0.62341441     0.95776346    -4.5318405     -2.2086257      1.2126756      0.80727404     1.167704       1.6630487     -0.4313867      0.035611998   -0.63312098     6.1242767      6.1242767      6.1242767      0              0              0              0.95776346   
     84000   0.68521469     0.9842255     -4.704791      -1.6765178      1.7945028      1.4427032      1.4202387      2.5205666      0.29652979     0.17291641    -0.37220738     6.0688913      6.0688913      6.0688913      0              0              0              0.9842255    
     85000   0.57498656     0.95693686    -4.6591176     -2.8317237      0.84317137     0.8933717      1.1516387      0.48450374    -0.20105181     0.14329477    -0.011755708    6.1260396      6.1260396      6.1260396      0              0              0              0.95693686   
     86000   0.60985315     0.96796146    -4.725627      -3.0844684      0.64321285     0.03792281     0.20030032     1.6914154      0.15341521     0.15410949     0.32702824     6.1026932      6.1026932      6.1026932      0              0              0              0.96796146   
     87000   0.70278456     0.96394525    -4.7195057     -3.144143       0.46134128     0.36494576     0.43618211     0.58289598    -0.41281446     0.13870023    -0.32238038     6.1111569      6.1111569      6.1111569      0              0              0              0.96394525   
     88000   0.66420308     0.97436564    -4.6645728     -1.8237337      1.6382771      1.5502147      1.5412872      1.8233295     -0.06621625     0.2806119      0.628021       6.0892935      6.0892935      6.0892935      0              0              0              0.97436564   
     89000   0.57163726     0.96118288    -4.6967537     -3.1531845      0.60327388     0.61622677     0.9120253      0.28156956     0.29524985     0.17386347    -0.53180927     6.1170057      6.1170057      6.1170057      0              0              0              0.96118288   
     90000   0.59065732     0.98963217    -4.835511      -2.2213432      1.5587712      1.0720062      2.6113182      0.99298935     0.52064151     0.088368504   -0.46997172     6.057819       6.057819       6.057819       0              0              0              0.98963217   
     91000   0.64355094     0.97351937    -4.7948855     -2.8673101      0.85587897     1.2156961      0.79291417     0.55902664     0.40755716     0.83601474    -0.52754201     6.0910574      6.0910574      6.0910574      0              0              0              0.97351937   
     92000   0.57924038     0.99039904    -4.8751609     -3.0351478      0.87830102     0.56709538     0.75967715     1.3081305      0.019157602    0.76392317    -0.17139272     6.0562551      6.0562551      6.0562551      0              0              0              0.99039904   
     93000   0.59723628     0.96845562    -4.7891248     -3.762919       0.11870685     0.48254244     0.30981958    -0.43624148     0.16729297     0.12328434     0.18337654     6.1016551      6.1016551      6.1016551      0              0              0              0.96845562   
     94000   0.5439687      0.9987189     -4.9215876     -2.4867708      1.4735131      0.9893326      1.6644658      1.7667408     -0.33073476     0.12863103    -0.58578755     6.0393909      6.0393909      6.0393909      0              0              0              0.9987189    
     95000   0.57666322     0.97989015    -4.8415503     -2.8074421      1.0453097      0.93235879     0.83142164     1.3721485      0.57838035    -0.19081744    -0.33526604     6.0778283      6.0778283      6.0778283      0              0              0              0.97989015   
     96000   0.56704627     0.98882673    -4.8988109     -2.3636464      1.5181618      1.5940157      1.5194389      1.4410309      0.31659903    -0.10240861    -0.074292681    6.0594633      6.0594633      6.0594633      0              0              0              0.98882673   
     97000   0.55038865     0.9822824     -4.95572       -3.3284765      0.71955623     0.1143875      1.5569771      0.48730406    -0.11204419    -0.17956924     0.27377021     6.0728903      6.0728903      6.0728903      0              0              0              0.9822824    
     98000   0.49685445     0.99678089    -5.0052635     -2.9402452      1.1992751      0.74151649     1.4210579      1.435251      -0.07599514    -0.013139989    0.049309744    6.0433024      6.0433024      6.0433024      0              0              0              0.99678089   
     99000   0.48927782     0.98520196    -4.9490655     -3.1417819      0.96463489     0.56679041     1.1552744      1.1718398     -0.17756949    -0.34924042    -0.59722303     6.0668856      6.0668856      6.0668856      0              0              0              0.98520196   
    100000   0.46909626     0.99483715    -5.0441252     -3.4056095      0.84867705     0.59649031     1.3002025      0.6493384     -0.48041013    -0.11893623    -0.37447652     6.0472357      6.0472357      6.0472357      0              0              0              0.99483715   
    101000   0.4842275      0.99283207    -5.0167026     -3.3114958      0.88677706     0.71632722     0.95943409     0.98456987     0.13887679    -0.61855006     0.19407253     6.0513039      6.0513039      6.0513039      0              0              0              0.99283207   
    102000   0.48701396     0.99454999    -5.0444153     -3.6390292      0.61347261     0.23867007     0.46806469     1.1336831     -0.34932303    -0.18721948    -0.021614487    6.0478176      6.0478176      6.0478176      0              0              0              0.99454999   
    103000   0.48854822     1.0032391     -5.0215314     -2.8698896      1.2973557      1.4191844      1.5779259      0.89495678     0.48566089    -0.071030336    0.52528974     6.0303068      6.0303068      6.0303068      0              0              0              1.0032391    
    104000   0.42925403     0.98940101    -5.0282083     -3.9635866      0.38133325     0.024452572    0.41820415     0.70134302    -0.081720543   -0.23720317     0.64448306     6.0582907      6.0582907      6.0582907      0              0              0              0.98940101   
    105000   0.45119644     0.99227307    -5.1114864     -3.7803438      0.59331785     0.24711526     0.49614789     1.0366904      0.38159383    -0.15829448     0.44692178     6.05244        6.05244        6.05244        0              0              0              0.99227307   
    106000   0.43711358     1.0108166     -5.1066914     -3.0464217      1.2937329      1.6038062      0.66209898     1.6152934      0.34516371     0.46847026    -0.21983324     6.0152005      6.0152005      6.0152005      0              0              0              1.0108166    
    107000   0.45299409     0.99212837    -5.0709918     -3.637078       0.68350438     0.66762508     0.42239378     0.96049428    -0.068916101    0.35583764     0.35164733     6.0527342      6.0527342      6.0527342      0              0              0              0.99212837   
    108000   0.44217275     1.0113096     -5.1959026     -2.8862787      1.5166712      1.1470225      1.7453189      1.6576723     -0.069014386   -0.092205864    0.68747593     6.0142228      6.0142228      6.0142228      0              0              0              1.0113096    
    109000   0.45692079     0.99342789    -5.1492711     -4.075478       0.35387599     0.29229919     0.19424479     0.57508397    -0.24833612    -0.17676209     0.24908978     6.0500938      6.0500938      6.0500938      0              0              0              0.99342789   
    110000   0.37708676     1.0070889     -5.1782766     -3.9688912      0.59197002     0.83382919     0.58819215     0.35388872     0.28446745     0.18586527     0.10080807     6.022613       6.022613       6.022613       0              0              0              1.0070889    
    111000   0.40673483     1.0153427     -5.1714792     -2.9393022      1.5000536      1.384682       1.6740198      1.441459       0.20290138    -0.31527039     0.27474307     6.0062492      6.0062492      6.0062492      0              0              0              1.0153427    
    112000   0.40456854     0.99937603    -5.1805043     -3.7935109      0.71153291     0.42493326     0.71880212     0.99086335     0.30412607    -0.033299492    0.69017302     6.0380668      6.0380668      6.0380668      0              0              0              0.99937603   
    113000   0.38016356     1.0137654     -5.2620495     -3.4495863      1.1474617      0.84961816     1.3232724      1.2694947      0.095836696    0.23452347     0.47507724     6.0093626      6.0093626      6.0093626      0              0              0              1.0137654    
    114000   0.3277655      1.0078893     -5.2818085     -3.8664588      0.84860581     0.32708689     1.2714208      0.94730968     0.082543594    0.021991255    0.57270568     6.0210183      6.0210183      6.0210183      0              0              0              1.0078893    
    115000   0.3685008      1.0092767     -5.2789185     -3.7052519      0.93925049     0.61877221     0.82101559     1.3779637      0.092691477   -0.030593191    0.37210523     6.0182581      6.0182581      6.0182581      0              0              0              1.0092767    
    116000   0.34942283     1.0163902     -5.2902843     -3.50986        1.1632223      0.92047211     1.0941759      1.4750187      0.34995079     0.44097378     0.072043844    6.0041852      6.0041852      6.0041852      0              0              0              1.0163902    
    117000   0.30937045     1.0224891     -5.289233      -3.7972621      0.95764057     0.93866149     1.1033638      0.83089641     0.29343241    -0.078582286    0.12815329     5.9922234      5.9922234      5.9922234      0              0              0              1.0224891    
    118000   0.30852544     1.0048882     -5.3422338     -4.2916993      0.53904061     0.55386141     0.77235246     0.29090797    -0.075723571   -0.019404315    0.28962469     6.0270062      6.0270062      6.0270062      0              0              0              1.0048882    
    119000   0.29024715     1.0179261     -5.3399948     -3.5565197      1.2495331      0.91458939     1.4433532      1.3906566      0.20741208     0.43123692     0.50353565     6.0011638      6.0011638      6.0011638      0              0              0              1.0179261    
    120000   0.30167745     1.0267945     -5.3240315     -3.4285724      1.3490264      0.99531327     1.5246092      1.5271566      0.018986466    0.23076109     0.29858851     5.9838364      5.9838364      5.9838364      0              0              0              1.0267945    
    121000   0.32217337     1.0150032     -5.3638238     -4.1411989      0.68446379     0.73794151     0.93174681     0.38370307     0.19750437     0.19961647     0.43408528     6.0069188      6.0069188      6.0069188      0              0              0              1.0150032    
    122000   0.28124568     1.0228074     -5.3922037     -3.7102432      1.1736262      0.95182937     1.788638       0.78041117     0.11697988     0.41827109     0.14735809     5.9916018      5.9916018      5.9916018      0              0              0              1.0228074    
    123000   0.28638031     1.0256386     -5.4077637     -3.7482374      1.1488119      1.1662919      1.016438       1.2637057      0.12736047     0.31396292     0.15469555     5.9860836      5.9860836      5.9860836      0              0              0              1.0256386    
    124000   0.26972107     1.0239797     -5.3590312     -3.5382692      1.3201922      1.0727234      1.9208036      0.96704953    -0.099161332    0.26837156     0.82677578     5.9893144      5.9893144      5.9893144      0              0              0              1.0239797    
    125000   0.26272025     1.0283789     -5.4508733     -3.7487388      1.2247288      1.0202351      1.3965007      1.2574504      0.15455806     0.11031593     0.019642351    5.9807618      5.9807618      5.9807618      0              0              0              1.0283789    
    126000   0.22150604     1.0261661     -5.4484936     -3.9917033      1.0506006      1.6132422      0.91045648     0.62810317     0.17675388     0.0044416227   0.25785248     5.9850576      5.9850576      5.9850576      0              0              0              1.0261661    
    127000   0.22533598     1.0286829     -5.4609348     -3.9434433      1.1045974      0.79130149     1.4207058      1.1017849      0.54105282     0.17583081    -0.059298747    5.9801725      5.9801725      5.9801725      0              0              0              1.0286829    
    128000   0.24635977     1.0252302     -5.4480162     -3.8123071      1.1818268      0.66135759     1.6598566      1.2242662      0.17519728     0.15278539     0.65014271     5.9868783      5.9868783      5.9868783      0              0              0              1.0252302    
    129000   0.20921982     1.0386376     -5.4847224     -3.633258       1.4533409      1.6170193      1.8515472      0.89145617     0.60048094    -0.34181384     0.25852903     5.9610058      5.9610058      5.9610058      0              0              0              1.0386376    
    130000   0.2261797      1.0272136     -5.4917374     -4.2608845      0.83417189     0.93579385     1.0824378      0.48428401     0.20787528    -0.074057753    0.10750027     5.9830225      5.9830225      5.9830225      0              0              0              1.0272136    
    131000   0.17621727     1.0345527     -5.5160167     -4.3595887      0.84026719     0.87383193     1.0283098      0.61865981     0.35497779     0.0066646584  -0.049887793    5.9688411      5.9688411      5.9688411      0              0              0              1.0345527    
    132000   0.20759108     1.0344258     -5.5355961     -4.0794983      1.0779357      1.0302515      1.0588889      1.1446668      0.21109784    -0.053338627    0.29625066     5.9690852      5.9690852      5.9690852      0              0              0              1.0344258    
    133000   0.16541258     1.0350994     -5.5572174     -4.2432717      1.0041098      0.4771808      1.4195927      1.1155559      0.074677979    0.13903513     0.26790364     5.9677901      5.9677901      5.9677901      0              0              0              1.0350994    
    134000   0.16681677     1.0372423     -5.5633617     -4.3375069      0.9211473      0.91401389     0.89031122     0.95911679     0.53468721    -0.071316912    0.026998113    5.9636776      5.9636776      5.9636776      0              0              0              1.0372423    
    135000   0.15388234     1.0362671     -5.584327      -4.4366372      0.86483124     0.95727635     0.66990278     0.96731461     0.21792649    -0.12533723     0.33331732     5.9655476      5.9655476      5.9655476      0              0              0              1.0362671    
    136000   0.13518039     1.0382764     -5.6027244     -4.5616652      0.79220725     0.76949801     1.0339126      0.57321113    -0.10640133    -0.45233192     0.020109288    5.9616969      5.9616969      5.9616969      0              0              0              1.0382764    
    137000   0.12951293     1.0389569     -5.6098441     -4.4743892      0.88987309     0.72004855     1.1127192      0.83685151     0.26201753     0.09889545     0.41494216     5.9603951      5.9603951      5.9603951      0              0              0              1.0389569    
    138000   0.12240328     1.0432643     -5.6407863     -4.3041893      1.0943938      0.78824606     1.3673846      1.1275507      0.18077263     0.084492201    0.25505698     5.9521808      5.9521808      5.9521808      0              0              0              1.0432643    
    139000   0.11719999     1.0425683     -5.6424106     -4.3829634      1.0279024      0.78504421     1.2605035      1.0381593     -0.055100974   -0.14278753     0.21563896     5.9535051      5.9535051      5.9535051      0              0              0              1.0425683    
    140000   0.10194894     1.0418861     -5.6574794     -4.5994549      0.85800803     0.91226759     1.0513273      0.61042915    -0.059324435    0.028347273    0.076705846    5.9548042      5.9548042      5.9548042      0              0              0              1.0418861    
Loop time of 24.1451 on 2 procs for 140000 steps with 200 atoms

Performance: 1001942.905 tau/day, 5798.281 timesteps/s
88.8% CPU use with 2 MPI tasks x 1 OpenMP threads

MPI task timing breakdown:
Section |  min time  |  avg time  |  max time  |%varavg| %total
---------------------------------------------------------------
Pair    | 15.473     | 15.556     | 15.638     |   2.1 | 64.43
Bond    | 0.30111    | 0.30615    | 0.31119    |   0.9 |  1.27
Neigh   | 0.099795   | 0.099804   | 0.099814   |   0.0 |  0.41
Comm    | 6.431      | 6.5081     | 6.5852     |   3.0 | 26.95
Output  | 0.022735   | 0.023214   | 0.023694   |   0.3 |  0.10
Modify  | 0.99654    | 1.0056     | 1.0147     |   0.9 |  4.16
Other   |            | 0.6467     |            |       |  2.68

Nlocal:            100 ave         102 max          98 min
Histogram: 1 0 0 0 0 0 0 0 0 1
Nghost:         3645.5 ave        3654 max        3637 min
Histogram: 1 0 0 0 0 0 0 0 0 1
Neighs:        32181.5 ave       32925 max       31438 min
Histogram: 1 0 0 0 0 0 0 0 0 1

Total # of neighbors = 64363
Ave neighs/atom = 321.815
Ave special neighs/atom = 10.27
Neighbor list builds = 97
Dangerous builds = 0
System init for write_data ...
Generated 0 of 1 mixed pair_coeff terms from geometric mixing rule
WARNING: Proc sub-domain size < neighbor skin, could lead to lost atoms (src/domain.cpp:970)
WARNING: Not all mixed pair coeffs generated from mixing. Use write_data with 'pair ij' option to store all pair coeffs. (src/write_data.cpp:309)
Total wall time: 0:00:24
