Generated by ZY code

200 atoms
2 atom types
224 bonds
2 bond types
0 angles
0 angle types
0 dihedrals
0 dihedral types
0 impropers
0 improper types

91.9451999999999998 108.1320359507570856 xlo xhi
96.9973999999999990 102.9522041638983296 ylo yhi
96.9928000000000026 102.9476041638983332 zlo zhi

Masses

1 1.000
2 1.500

Pair Coeffs

1 1.000000 1.000000
2 1.000000 1.000000

Bond Coeffs

1 100.000000 1.200000
2 100.000000 1.200000

Atoms # full

1 1 1 0.000000 106.630000 99.144200 101.412000 -1 1 0
2 1 1 0.000000 105.377000 99.413900 101.467000 -2 2 0
3 2 1 0.000000 105.630000 100.416000 101.832000 0 -1 0
4 2 1 0.000000 106.432000 100.134000 100.836000 0 -1 0
5 3 1 0.000000 102.039000 100.258000 98.902600 -1 0 1
6 3 1 0.000000 103.330000 100.181000 98.926000 -1 0 1
7 4 1 0.000000 106.146000 101.029000 99.739200 0 -2 -1
8 4 1 0.000000 105.144000 101.089000 99.112500 -1 -1 -1
9 5 1 0.000000 95.806100 98.835900 100.939000 1 0 0
10 5 1 0.000000 96.643300 99.483500 100.270000 0 1 0
11 6 1 0.000000 100.687000 98.057300 97.730400 -2 1 0
12 6 1 0.000000 99.475400 98.143600 97.924700 -2 1 0
13 7 1 0.000000 100.090000 101.980000 99.863200 0 0 2
14 7 1 0.000000 101.375000 101.742000 99.865600 1 0 2
15 8 1 0.000000 105.992000 98.713900 98.530300 -1 1 0
16 8 1 0.000000 106.869000 99.064800 99.315800 0 0 0
17 9 1 0.000000 92.055100 100.083000 99.240400 -2 0 0
18 9 1 0.000000 107.889000 98.856800 99.136000 -2 0 0
19 10 1 0.000000 104.977000 97.575000 99.990600 -1 0 0
20 10 1 0.000000 103.845000 97.600300 100.162000 -1 0 0
21 11 1 0.000000 97.946800 102.611000 98.098100 0 0 1
22 11 1 0.000000 98.984100 101.996000 97.934100 1 -1 1
23 12 1 0.000000 97.330600 100.964000 100.846000 0 0 -1
24 12 1 0.000000 96.873500 102.085000 100.679000 1 0 -1
25 13 1 0.000000 105.503000 99.689100 102.688000 -2 -1 0
26 13 1 0.000000 104.586000 99.995800 101.943000 -2 -1 0
27 14 1 0.000000 92.798200 99.167700 101.312000 1 -2 0
28 14 1 0.000000 93.931800 98.671000 101.577000 1 -1 0
29 15 1 0.000000 101.853000 98.596300 98.713900 1 1 1
30 15 1 0.000000 102.153000 97.764700 99.534700 1 1 1
31 16 1 0.000000 94.883000 98.886400 100.347000 -1 2 -2
32 16 1 0.000000 95.958400 98.589300 99.886900 1 0 -2
33 17 1 0.000000 97.370900 100.386000 99.869600 0 2 -1
34 17 1 0.000000 98.730500 100.188000 99.948300 0 2 -1
35 18 1 0.000000 101.497000 99.495200 99.408500 0 0 -1
36 18 1 0.000000 102.628000 99.319100 99.092900 0 0 -1
37 19 1 0.000000 94.905600 100.793000 99.333800 1 1 -1
38 19 1 0.000000 93.697300 100.978000 99.251300 1 1 -1
39 20 1 0.000000 93.252000 100.202000 100.947000 -2 -1 0
40 20 1 0.000000 92.820200 101.285000 100.650000 -2 -2 0
41 21 1 0.000000 102.419000 101.363000 97.750400 -1 0 0
42 21 1 0.000000 103.689000 101.016000 97.305900 -1 0 0
43 22 1 0.000000 96.957600 97.244400 98.036700 0 1 0
44 22 1 0.000000 96.997600 102.099000 98.539500 -1 0 0
45 23 1 0.000000 95.581800 99.944900 100.764000 -1 -1 0
46 23 1 0.000000 94.824200 99.357400 101.491000 -1 -1 0
47 24 1 0.000000 94.866800 99.973700 100.002000 0 0 -1
48 24 1 0.000000 93.648800 99.940600 99.780600 0 0 -1
49 25 1 0.000000 102.834000 97.858500 100.431000 0 -1 0
50 25 1 0.000000 103.107000 97.188000 99.467500 0 -1 0
51 26 1 0.000000 103.350000 101.822000 98.108800 0 -1 -1
52 26 1 0.000000 103.527000 101.935000 99.292600 0 -1 -1
53 27 1 0.000000 106.125000 100.444000 97.344100 0 -1 -1
54 27 1 0.000000 107.349000 100.498000 97.819400 1 -2 0
55 28 1 0.000000 99.672700 102.812000 99.332000 0 -2 1
56 28 1 0.000000 100.839000 102.556000 99.032900 -2 -1 1
57 29 1 0.000000 94.653900 101.737000 99.854100 0 -3 1
58 29 1 0.000000 93.437900 101.798000 99.899100 0 -2 1
59 30 1 0.000000 92.832800 98.347300 100.686000 0 0 2
60 30 1 0.000000 94.154100 98.156400 100.632000 1 -1 2
61 31 1 0.000000 104.236000 99.804200 96.992800 -1 1 -2
62 31 1 0.000000 104.919000 98.798400 102.902000 -1 1 -2
63 32 1 0.000000 92.642900 100.348000 100.103000 0 -1 -2
64 32 1 0.000000 93.875900 100.817000 100.286000 0 -1 -2
65 33 1 0.000000 105.979000 102.067000 100.367000 0 -2 -1
66 33 1 0.000000 104.862000 102.086000 99.878400 -1 -1 -1
67 34 1 0.000000 96.473300 97.130600 100.244000 1 0 -1
68 34 1 0.000000 97.673700 102.633000 100.113000 0 0 -1
69 35 1 0.000000 102.788000 99.528300 100.829000 -1 1 1
70 35 1 0.000000 101.429000 99.757800 100.554000 -1 1 1
71 36 1 0.000000 96.999900 101.105000 99.125400 0 1 1
72 36 1 0.000000 96.041100 100.968000 98.432100 -1 2 1
73 37 1 0.000000 103.702000 99.239900 99.218700 -1 0 1
74 37 1 0.000000 104.300000 98.309800 99.540500 -1 0 1
75 38 1 0.000000 101.397000 97.585900 98.724500 0 -1 1
76 38 1 0.000000 100.166000 97.654300 98.667100 1 -1 1
77 39 1 0.000000 105.379000 99.327100 100.414000 0 1 -1
78 39 1 0.000000 106.638000 99.057000 100.379000 0 0 -1
79 40 1 0.000000 102.741000 101.086000 98.807000 -2 -1 0
80 40 1 0.000000 101.561000 101.192000 98.872000 -2 -1 0
81 41 1 0.000000 97.980200 100.157000 98.895000 0 1 0
82 41 1 0.000000 99.339700 100.243000 99.029100 0 1 0
83 42 1 0.000000 101.600000 101.795000 101.860000 -2 1 0
84 42 1 0.000000 101.612000 102.493000 102.899000 -2 2 0
85 43 1 0.000000 101.167000 100.552000 99.821100 1 1 1
86 43 1 0.000000 102.253000 99.959400 99.946500 1 1 1
87 44 1 0.000000 96.429200 101.182000 100.220000 0 0 0
88 44 1 0.000000 97.591700 101.581000 99.943500 0 0 0
89 45 1 0.000000 102.713000 100.693000 100.668000 1 -2 -1
90 45 1 0.000000 103.880000 100.392000 100.683000 1 -2 -1
91 46 1 0.000000 98.703200 102.588000 98.820900 1 1 0
92 46 1 0.000000 99.987000 102.252000 98.458800 1 1 0
93 47 1 0.000000 103.235000 98.753700 98.360700 0 2 0
94 47 1 0.000000 104.430000 98.834000 98.613200 0 2 0
95 48 1 0.000000 104.004000 101.443000 100.303000 -1 0 -1
96 48 1 0.000000 105.306000 101.159000 100.415000 -1 1 -1
97 49 1 0.000000 106.441000 100.781000 98.811400 2 0 0
98 49 1 0.000000 106.509000 99.918100 99.732200 1 1 0
99 50 1 0.000000 95.549000 99.448800 99.307200 0 1 0
100 50 1 0.000000 94.316200 99.526100 99.064300 0 1 -1
101 51 1 0.000000 104.203000 97.077000 99.249300 -2 1 0
102 51 1 0.000000 103.689000 102.478000 100.203000 -2 1 0
103 52 1 0.000000 99.456000 97.066500 97.976300 -1 -1 0
104 52 1 0.000000 100.694000 102.939000 97.966900 -1 -1 0
105 53 1 0.000000 105.972000 99.798000 98.829000 -1 1 0
106 53 1 0.000000 107.282000 100.035000 98.839700 -1 2 0
107 54 1 0.000000 104.923000 100.198000 100.755000 -1 -1 -2
108 54 1 0.000000 104.389000 100.620000 99.742700 -1 -1 -2
109 55 1 0.000000 106.376000 97.977700 99.238400 1 1 1
110 55 1 0.000000 107.070000 97.361800 100.018000 0 2 1
111 56 1 0.000000 96.222300 97.647800 99.272500 4 0 -1
112 56 1 0.000000 95.009900 98.213500 99.525300 3 1 -1
113 57 1 0.000000 100.811000 98.570300 98.666900 1 -1 0
114 57 1 0.000000 101.475000 99.513100 98.256000 -1 1 0
115 58 1 0.000000 95.788000 101.393000 99.365500 1 0 0
116 58 1 0.000000 96.687700 102.165000 99.574000 2 0 0
117 59 1 0.000000 94.403100 100.202000 100.940000 0 -1 1
118 59 1 0.000000 93.737200 99.776900 101.791000 0 -1 1
119 60 1 0.000000 91.945200 99.419600 98.289900 0 1 1
120 60 1 0.000000 106.873000 99.421400 98.099300 0 0 1
121 61 1 0.000000 102.171000 100.962000 99.764700 0 -1 0
122 61 1 0.000000 103.295000 100.885000 99.731200 0 -1 0
123 62 1 0.000000 98.621000 99.352800 99.171400 1 -1 1
124 62 1 0.000000 97.434600 99.392400 99.433200 1 -1 1
125 63 1 0.000000 107.480000 100.795000 101.525000 -1 -1 -1
126 63 1 0.000000 107.862000 101.298000 100.476000 0 -2 -1
127 64 1 0.000000 105.195000 99.059100 99.322000 0 0 0
128 64 1 0.000000 105.375000 100.189000 99.709900 0 -1 0
129 65 1 0.000000 105.748000 98.400000 99.950200 0 2 -1
130 65 1 0.000000 104.708000 98.508300 100.515000 0 2 -1
131 66 1 0.000000 101.293000 98.462700 99.659000 -1 -1 -1
132 66 1 0.000000 100.433000 99.275700 99.378500 -1 -1 -1
133 67 1 0.000000 98.463400 98.647900 98.300700 0 1 0
134 67 1 0.000000 98.982700 97.698200 98.756400 -1 1 0
135 68 1 0.000000 92.659900 99.337400 100.227000 1 1 0
136 68 1 0.000000 107.861000 100.283000 100.687000 1 0 0
137 69 1 0.000000 103.578000 98.734500 100.270000 0 -2 0
138 69 1 0.000000 103.315000 99.844100 99.956700 0 -2 0
139 70 1 0.000000 93.752800 100.282000 98.414600 0 -1 0
140 70 1 0.000000 95.177200 100.178000 98.564300 0 -1 0
141 71 1 0.000000 100.479000 101.365000 98.945100 1 0 0
142 71 1 0.000000 99.285100 101.601000 98.976700 1 0 0
143 72 1 0.000000 107.436000 98.407100 100.009000 -2 1 0
144 72 1 0.000000 106.824000 98.136600 100.968000 -2 1 0
145 73 1 0.000000 97.265100 97.754000 102.939000 4 -3 2
146 73 1 0.000000 96.296600 98.142300 102.169000 2 -1 3
147 74 1 0.000000 105.802000 98.765900 102.194000 -1 -1 -2
148 74 1 0.000000 105.716000 98.415700 101.026000 -1 0 -2
149 75 1 0.000000 104.041000 98.639800 97.617700 1 0 -1
150 75 1 0.000000 102.909000 98.073400 97.535900 1 0 -1
151 76 1 0.000000 99.461700 101.012000 99.865200 1 -1 0
152 76 1 0.000000 100.512000 101.129000 100.406000 0 -1 0
153 77 1 0.000000 104.370000 100.458000 97.894600 -2 -1 -1
154 77 1 0.000000 105.455000 100.478000 98.212600 -2 -1 -1
155 78 1 0.000000 106.334000 102.764000 99.477600 -1 0 1
156 78 1 0.000000 106.993000 101.837000 99.944100 -1 0 2
157 79 1 0.000000 102.665000 99.956100 98.096800 0 0 1
158 79 1 0.000000 103.822000 99.612100 98.112700 0 0 1
159 80 1 0.000000 104.107000 97.874500 98.453800 -2 1 2
160 80 1 0.000000 105.104000 98.308200 97.930200 -2 1 2
161 81 2 0.000000 104.183000 99.343400 100.980000 1 0 -1
162 82 2 0.000000 107.257000 100.574000 99.878100 -2 0 -1
163 83 2 0.000000 95.404300 97.748600 100.546000 1 2 -2
164 84 2 0.000000 104.931000 100.703000 102.891000 0 -1 2
165 85 2 0.000000 98.780700 102.041000 99.799900 -2 -1 -1
166 86 2 0.000000 107.715000 99.594600 99.995200 2 2 1
167 87 2 0.000000 99.602200 98.756100 98.781500 -1 2 -1
168 88 2 0.000000 95.157100 100.942000 100.306000 0 -1 1
169 89 2 0.000000 98.383800 97.619200 97.669200 -3 0 0
170 90 2 0.000000 96.034100 100.334000 99.716800 1 0 0
171 91 2 0.000000 93.930200 99.263800 100.674000 1 -1 2
172 92 2 0.000000 97.447200 96.997400 99.092700 0 -1 0
173 93 2 0.000000 92.429400 101.206000 99.529600 1 -2 0
174 94 2 0.000000 98.020700 101.775000 98.982800 0 1 1
175 95 2 0.000000 101.762000 97.540700 97.653700 -2 3 -2
176 96 2 0.000000 105.238000 97.917600 98.966300 -1 2 0
177 97 2 0.000000 103.215000 98.267500 99.351900 0 1 0
178 98 2 0.000000 104.656000 99.971300 98.879400 0 -3 2
179 99 2 0.000000 100.125000 100.087000 100.209000 2 -3 -2
180 100 2 0.000000 105.990000 98.992200 97.431600 -2 1 1
181 101 2 0.000000 98.427000 101.103000 100.451000 2 -1 -2
182 102 2 0.000000 101.606000 101.120000 100.808000 1 -1 -1
183 103 2 0.000000 101.640000 100.599000 97.937100 -1 0 0
184 104 2 0.000000 100.714000 100.268000 98.907800 2 0 0
185 105 2 0.000000 107.820000 98.906200 100.899000 0 1 -2
186 106 2 0.000000 106.704000 101.091000 100.657000 0 -3 -1
187 107 2 0.000000 96.561400 100.028000 98.833600 2 -1 1
188 108 2 0.000000 95.152600 98.306200 101.624000 -1 1 0
189 109 2 0.000000 95.737200 102.109000 100.202000 -1 0 2
190 110 2 0.000000 104.394000 99.526300 99.944200 -3 2 0
191 111 2 0.000000 93.791000 98.784900 99.758000 -1 0 0
192 112 2 0.000000 93.048700 99.644900 98.875500 1 -1 -2
193 113 2 0.000000 101.193000 101.817000 98.126200 -1 1 -1
194 114 2 0.000000 102.735000 101.720000 100.135000 1 0 0
195 115 2 0.000000 106.035000 97.376900 100.529000 0 -1 1
196 116 2 0.000000 102.623000 97.689300 98.498700 0 2 1
197 117 2 0.000000 92.329000 100.386000 98.346100 -2 -1 0
198 118 2 0.000000 103.966000 101.066000 98.774800 -1 0 2
199 119 2 0.000000 104.959000 99.431900 97.843200 -1 -1 0
200 120 2 0.000000 102.382000 98.768600 100.030000 0 0 -2

Velocities 

109 -0.227129 -0.237573 0.028824
183 -0.209371 0.016887 0.108081
166 0.150421 0.414707 -0.054315
18 -0.062984 -0.763462 0.388200
16 -0.295663 0.127946 -0.601266
98 -0.406536 -0.345350 0.011749
167 0.180839 0.611129 0.184938
112 0.141926 0.215166 -0.202692
133 0.481995 -0.043902 0.150594
111 -0.023667 0.562759 -0.039578
124 -0.151538 -0.038630 -0.669392
119 -0.608274 -0.160957 -0.372675
158 -0.199467 0.288483 -0.077577
110 -0.033477 0.311482 0.464532
123 0.470302 0.268152 -0.193116
144 -0.544405 0.325150 0.297371
43 0.850976 -0.188003 0.306315
157 -0.497426 0.367579 -0.137154
60 0.137014 -0.493740 -0.182323
15 -0.147937 0.082831 0.395541
67 -0.336336 -0.190975 0.085598
191 -0.009080 -0.161169 -0.394066
146 0.502096 0.143223 -0.256431
99 -0.511961 0.155067 0.007119
127 0.055907 -0.327331 0.174379
55 -0.308856 -0.046105 -0.129993
184 0.425860 0.306515 0.165084
76 0.038733 -0.311187 0.021279
176 -0.709793 -0.210011 -0.065108
199 -0.087004 0.232700 -0.308859
105 -0.378149 0.012633 0.310571
74 0.318348 0.075911 0.032357
30 -0.080847 -0.243334 0.570471
73 0.049595 -0.013111 0.640006
108 0.291711 -0.296520 -0.062933
113 -1.009112 -0.077461 0.418650
93 -0.475629 0.172960 -0.083821
178 0.218995 -0.178789 -0.013820
5 -0.152513 -0.688496 -0.214332
29 -0.290824 0.468959 0.337090
114 -0.554810 0.446129 0.086616
107 0.064448 -0.153204 -0.387667
49 0.106792 -0.056610 0.052743
6 0.802873 -0.152056 0.086867
94 -0.031421 0.318345 0.207282
120 0.407215 0.365802 -0.169650
22 0.342089 0.466690 -0.375721
36 0.074248 0.391881 0.049674
128 0.156908 0.420207 -0.303679
21 0.131414 0.289530 0.321189
50 -0.307539 0.347709 0.193609
14 0.032354 0.077242 0.320087
57 -0.750318 -0.255332 -0.649899
187 -0.036252 -0.184178 0.052495
188 0.385264 0.036673 -0.358145
143 0.059175 -0.179119 0.056294
91 -0.019950 -0.393114 0.241136
134 0.159395 -0.076680 -0.224853
172 0.268714 -0.328820 0.227165
92 -0.032854 0.579005 -0.111299
17 0.147358 0.297561 0.020061
97 -0.046329 -0.183699 0.282779
165 0.078546 -0.479106 0.034085
38 -0.091217 0.274173 -0.107140
115 0.606301 0.210030 0.376063
141 -0.085459 0.189218 0.270402
193 0.437491 0.066811 0.050708
140 -0.307117 0.001729 0.011228
88 -0.220126 0.121805 -0.162505
139 0.003014 0.315902 -0.264214
142 0.065365 0.129114 -0.013293
81 -0.227680 -0.335686 -0.129162
82 0.333514 -0.175432 0.288904
197 -0.069325 -0.279324 0.051764
56 -0.121533 -0.004468 0.488997
168 0.163902 0.103453 0.113536
106 0.067613 -0.437626 0.228616
153 -0.226336 0.131530 0.288225
162 -0.580359 -0.190670 -0.040338
51 -0.271598 -0.132475 0.455965
196 -0.290249 -0.078008 0.480426
52 -0.198083 0.299587 0.241278
198 0.164950 0.446213 -0.180283
54 -0.022239 -0.336240 -0.325701
174 -0.136280 -0.680028 -0.040797
72 0.477015 -0.051802 0.213351
13 -0.146152 0.308668 -0.204065
71 0.453012 -0.032860 -0.041349
7 -0.537788 0.644899 -0.157511
194 0.376048 -0.210342 -0.035728
75 -0.295506 0.260142 0.238224
8 -0.208727 0.032705 0.290356
44 -0.161729 -0.227100 -0.418809
154 -0.156745 -0.140032 -0.592851
79 -0.084046 -0.442990 -0.092023
95 0.253100 0.612750 0.100445
122 -0.272165 0.015048 0.450853
156 -0.428208 -0.106786 -0.400528
58 0.374829 0.603003 -0.166589
37 -0.586451 -0.353168 -0.070825
185 -0.284160 0.147504 -0.416999
59 -0.182622 0.153083 -0.054480
31 0.856544 -0.127796 -0.126362
163 0.459978 -0.279176 0.503870
32 0.327041 0.245601 0.209479
145 0.210585 0.347990 -0.236999
9 -0.140333 -0.568385 -0.078219
148 0.430635 -0.428923 0.415547
100 0.410597 -0.705371 -0.343650
77 -0.091616 0.249292 0.158945
28 0.132237 0.526081 0.988786
151 -0.077501 0.140578 -0.068571
192 0.067786 0.134567 -0.099500
24 -0.007945 0.271848 -0.452969
181 -0.337552 0.179294 0.005724
47 0.334384 0.040216 -0.017442
132 -0.075941 0.042851 0.331480
131 -0.023126 -0.034817 -0.435054
135 -0.502141 0.558615 -0.323127
138 0.091741 0.439724 0.152385
83 -0.084143 0.178441 -0.406328
35 -0.147957 0.054343 0.453218
116 0.286046 0.032504 -0.265419
2 -0.217326 -0.145318 -0.011701
27 -0.095186 -0.095104 -0.081046
129 -0.046658 0.045255 -0.081925
200 -0.103882 -0.001630 -0.076515
147 0.153969 -0.108516 0.301521
78 0.004949 0.025900 -0.004868
137 0.103581 0.093882 0.579978
84 -0.180750 -0.080599 -0.190215
86 0.292666 -0.276442 -0.470216
130 -0.280797 -0.542748 -0.297037
160 -0.464486 0.491591 0.414293
190 -0.485519 0.123399 0.083300
159 0.503293 -0.153996 0.361264
150 0.080871 -0.042700 0.751911
10 -0.103154 -0.180258 0.029136
180 -0.271679 -0.043523 -0.359584
25 0.665076 -1.053599 -0.008137
19 0.042712 0.055713 -0.338330
62 -0.159563 -0.163144 -0.352532
26 0.384223 -0.004438 -0.398616
177 0.197607 -0.445076 -0.171368
61 0.082767 0.117199 0.491818
68 -0.351517 -0.121385 -0.104385
136 0.278822 -0.018343 0.092602
179 0.199914 -0.069452 -0.260560
20 0.188710 -0.144915 -0.067713
69 0.062593 -0.227330 -0.035596
63 0.058131 0.543353 0.032694
23 -0.763463 -0.559883 0.637134
169 -0.058902 -0.037169 0.136879
1 -0.098854 -0.439269 -0.426562
195 0.043586 -0.325239 -0.104875
189 0.273174 0.300015 -0.076755
64 0.115706 -0.206407 0.013210
155 -0.049102 -0.445003 0.034835
70 0.308823 -0.096338 0.107595
46 -0.286011 -0.331557 -0.322028
171 0.097180 0.278005 -0.047319
48 -0.069812 -0.383924 -0.255476
45 0.064762 0.140360 -0.106567
117 0.080291 0.038359 0.278024
103 0.493022 -0.448214 -0.340409
34 -0.226104 -0.517422 -0.269851
170 0.235487 0.439108 -0.261427
87 0.045367 0.577243 -0.042765
118 0.066661 0.235803 0.185509
96 0.006898 0.145279 0.493717
152 0.131021 0.496523 0.129818
33 0.271156 -0.050795 0.008389
39 -0.099416 -0.081130 -0.123184
101 -0.123523 0.624915 0.143775
173 -0.015750 -0.174806 -0.292053
80 -0.120983 -0.193326 0.121309
12 -0.378885 -0.038419 -0.022179
102 -0.240331 -0.467488 0.019897
164 0.064032 -0.130392 0.000187
104 0.051031 0.027949 0.658820
85 0.297753 0.295117 -0.395571
186 -0.428769 -0.130870 0.082499
161 0.134483 0.519379 -0.411344
121 -0.078182 -0.071159 -0.229919
53 0.458525 0.238795 -0.170341
3 0.307151 -0.183400 0.165649
89 0.459924 0.171208 -0.458338
182 -0.504731 -0.489086 -0.148162
40 0.675075 0.143717 -0.401387
66 -0.016095 0.505013 -0.385178
42 0.314883 -0.049501 0.157927
125 0.262915 -0.140628 0.161871
65 0.115638 -0.084003 0.439775
175 0.272205 -0.205007 0.119403
126 0.183274 0.188733 -0.394155
149 -0.546557 -0.442353 0.287339
4 0.137067 0.344451 0.256390
90 -0.210999 -0.185136 0.394492
11 -0.549053 -0.230684 -0.117221
41 0.522533 0.439817 0.068920

Bonds

1 1 109 110
2 2 183 157
3 2 166 16
4 2 166 18
5 2 166 63
6 2 166 98
7 2 167 76
8 2 167 113
9 2 167 123
10 2 167 133
11 1 133 134
12 1 111 112
13 1 119 120
14 1 123 124
15 1 43 44
16 1 157 158
17 1 15 16
18 1 67 68
19 2 191 112
20 2 191 135
21 2 191 31
22 1 99 100
23 1 127 128
24 1 55 56
25 2 184 5
26 2 184 35
27 2 184 80
28 2 184 82
29 2 176 15
30 2 176 74
31 2 176 109
32 2 176 127
33 2 199 61
34 2 199 149
35 2 199 154
36 2 199 158
37 1 105 106
38 1 73 74
39 1 113 114
40 1 93 94
41 2 178 6
42 2 178 73
43 2 178 94
44 2 178 105
45 1 5 6
46 1 29 30
47 1 107 108
48 1 49 50
49 1 21 22
50 1 57 58
51 2 187 81
52 2 187 99
53 2 187 124
54 2 187 140
55 2 188 28
56 2 188 146
57 1 143 144
58 1 91 92
59 2 172 43
60 2 172 111
61 2 172 116
62 2 172 91
63 1 17 18
64 1 97 98
65 2 165 13
66 2 165 55
67 2 165 68
68 2 165 88
69 1 115 116
70 1 141 142
71 2 193 41
72 2 193 56
73 2 193 92
74 2 193 141
75 1 139 140
76 1 81 82
77 2 197 139
78 2 197 106
79 2 197 54
80 2 168 64
81 2 168 87
82 2 168 115
83 2 168 117
84 1 153 154
85 2 162 4
86 2 162 7
87 2 162 17
89 1 51 52
90 2 196 29
91 2 196 50
92 2 196 75
93 2 196 93
94 2 198 79
95 2 198 122
96 2 198 8
97 2 198 51
98 2 174 44
99 2 174 71
100 2 174 142
101 2 174 21
102 1 13 14
103 1 71 72
104 1 7 8
105 2 194 14
106 2 194 52
107 2 194 95
108 2 194 102
109 1 75 76
110 1 79 80
111 1 95 96
112 1 37 38
113 2 185 1
114 2 185 27
115 2 185 59
116 2 185 78
117 1 59 60
118 1 31 32
119 2 163 9
120 2 163 32
121 2 163 60
122 2 163 67
123 1 145 146
124 1 9 10
125 1 77 78
126 1 151 152
127 2 192 100
128 2 192 119
129 2 181 23
130 2 181 151
131 1 47 48
132 1 131 132
133 1 135 136
134 1 83 84
135 1 35 36
136 1 27 28
137 1 129 130
138 2 200 86
139 2 200 131
140 2 200 137
141 1 147 148
142 1 137 138
143 2 190 90
144 2 190 107
145 2 190 128
146 2 190 130
147 1 159 160
148 2 180 147
149 2 180 160
150 2 180 62
151 2 180 120
152 1 25 26
153 1 19 20
154 2 177 20
155 2 177 30
156 2 177 36
157 2 177 49
158 1 61 62
159 2 179 34
160 2 179 70
161 2 179 85
162 2 179 132
163 1 69 70
164 1 63 64
165 1 23 24
166 2 169 12
167 2 169 103
168 2 169 134
169 2 169 145
170 1 1 2
171 2 195 19
172 2 195 129
173 2 195 148
174 2 195 155
175 2 189 24
176 2 189 57
177 1 155 156
178 2 171 39
179 2 171 46
180 2 171 48
181 2 171 118
182 1 45 46
183 1 117 118
184 1 103 104
185 2 170 33
186 2 170 37
187 2 170 45
188 2 170 47
189 1 87 88
190 1 33 34
191 1 39 40
192 1 101 102
193 2 173 40
194 2 173 58
195 2 173 126
196 2 164 3
197 2 164 25
198 2 164 42
199 2 164 53
200 1 85 86
201 2 186 65
202 2 186 136
203 2 186 96
204 2 186 125
205 2 161 2
206 2 161 26
207 2 161 69
208 2 161 77
209 1 121 122
210 1 53 54
211 1 3 4
212 1 89 90
213 2 182 83
214 2 182 89
215 2 182 121
216 2 182 152
217 1 125 126
218 1 65 66
219 2 175 11
220 2 175 84
221 2 175 104
222 2 175 150
223 1 149 150
224 1 11 12
225 1 41 42

