LAMMPS (23 Jun 2022)
OMP_NUM_THREADS environment is not set. Defaulting to 1 thread. (src/comm.cpp:98)
  using 1 OpenMP thread(s) per MPI task
Reading data file ...
  orthogonal box = (0 0 0) to (200 200 200)
  2 by 2 by 3 MPI processor grid
  reading atoms ...
  200 atoms
  scanning bonds ...
  1 = max bonds/atom
  reading bonds ...
  80 bonds
Finding 1-2 1-3 1-4 neighbors ...
  special bond factors lj:    0        0        0       
  special bond factors coul:  0        0        0       
     1 = max # of 1-2 neighbors
     0 = max # of 1-3 neighbors
     0 = max # of 1-4 neighbors
     1 = max # of special neighbors
  special bonds CPU = 0.001 seconds
  read_data CPU = 0.005 seconds
Generated 0 of 1 mixed pair_coeff terms from geometric mixing rule
Neighbor list info ...
  update every 1 steps, delay 0 steps, check yes
  max neighbors/atom: 2000, page size: 100000
  master list distance cutoff = 5.5
  ghost atom cutoff = 5.5
  binsize = 2.75, bins = 73 73 73
  1 neighbor lists, perpetual/occasional/extra = 1 0 0
  (1) pair lj/cut, perpetual
      attributes: half, newton on
      pair build: half/bin/newton
      stencil: half/bin/3d
      bin: standard
Setting up Verlet run ...
  Unit style    : lj
  Current step  : 0
  Time step     : 0.002
Per MPI rank memory allocation (min/avg/max) = 6.325 | 6.364 | 6.44 Mbytes
   Step          Temp         Density         PotEng        Enthalpy        Press           Pxx            Pyy            Pzz            Pxy            Pxz            Pyz             Lx             Ly             Lz             Xy             Yz             Xz          Density    
         0   1              2.75e-05       2.2913944e-28  2.4875         2.4875e-05     2.4540872e-05  2.7057051e-05  2.3027077e-05 -8.5634887e-07  1.0219777e-06  4.891355e-07   200            200            200            0              0              0              2.75e-05     
       100   2.5460753      0.0002083798   4.8417567     -3.0569946     -0.00221617    -0.0064439994  -9.1508416e-05 -0.00011300227 -0.00011413798  0.00013730878 -2.0107869e-05  101.8253       101.8253       101.8253       0              0              0              0.0002083798 
       200   4.2644533      0.00048094577  1.6493369      17.200088      0.0040163581   0.0058389042   0.003362158    0.0028480122  -4.3842723e-05 -8.5293638e-05  7.9462801e-05  77.050511      77.050511      77.050511      0              0              0              0.00048094577
       300   3.4133661      0.0008325349   0.098881657    9.1791006      0.0030166298   0.0036239303   0.0029100785   0.0025158804  -7.0677802e-06 -8.988309e-05   4.418752e-05   64.171188      64.171188      64.171188      0              0              0              0.0008325349 
       400   2.6582131      0.0012518367   1.5330842      0.86414737    -0.005276287   -0.0047524693  -0.0058909882  -0.0051854035  -0.00041227377 -0.00025976371 -0.00015208493  56.013365      56.013365      56.013365      0              0              0              0.0012518367 
       500   1.8187998      0.001735773    1.652763       11.424577      0.011136175    0.010019743    0.012965733    0.010423048   -0.00052165482  0.00064631248  0.00021146107  50.231551      50.231551      50.231551      0              0              0              0.001735773  
       600   1.8894555      0.0022800008   0.34378732     2.2590705     -0.0018752572  -0.0021256494  -0.002342743   -0.0011573793   0.00017739474 -0.00045943033 -0.00017180371  45.866531      45.866531      45.866531      0              0              0              0.0022800008 
       700   1.998407       0.0028744059   0.25646611     2.5964668     -0.0016792327  -0.00086274112 -0.0019760684  -0.0021988885  -0.00039204416 -0.00043313411  9.2782008e-05  42.457869      42.457869      42.457869      0              0              0              0.0028744059 
       800   1.0015963      0.0035284284   0.97166077     7.7603859      0.016980859    0.015913204    0.019725529    0.015303843   -0.0011608952   0.0013007586   0.00023865848  39.653402      39.653402      39.653402      0              0              0              0.0035284284 
       900   0.95637424     0.0042288355   0.66847766    -1.4089493     -0.013473899   -0.013661519   -0.01574283    -0.011017347    0.0011002618  -0.0015633736  -0.00033981131  37.3308        37.3308        37.3308        0              0              0              0.0042288355 
      1000   1.4215366      0.0049742864   0.042459653    3.9456675      0.0080563743   0.0074639898   0.010063236    0.0066418971  -0.00089238522  0.00053201194  0.00034122149  35.36421       35.36421       35.36421       0              0              0              0.0049742864 
      1100   0.90869521     0.0057769471   0.3481211      5.3648596      0.019224162    0.021329768    0.020432852    0.015909865   -0.0014365269   0.0014902513  -0.00019668614  33.644037      33.644037      33.644037      0              0              0              0.0057769471 
      1200   0.67861187     0.006611524    0.69240015    -2.3640108     -0.024458066   -0.030699434   -0.02459271    -0.018082054    0.0018279611  -0.0023242882  -0.00056614903  32.16427       32.16427       32.16427       0              0              0              0.006611524  
      1300   1.0008391      0.0074959718   0.25540391     5.0886954      0.022757355    0.026613168    0.024034462    0.017624437   -0.0021546843   0.00084639344  0.00056812192  30.845957      30.845957      30.845957      0              0              0              0.0074959718 
      1400   1.0352512      0.0084294026  -0.0023257992   3.3177482      0.013601696    0.017912383    0.012783797    0.010108907   -0.001543922    0.00062937934  0.00052445513  29.66256       29.66256       29.66256       0              0              0              0.0084294026 
      1500   0.88308894     0.009383957    0.41796188    -1.0358611     -0.023646149   -0.037756846   -0.019774336   -0.013407265    0.0018407508  -0.0018166758   0.0018616304   28.62061       28.62061       28.62061       0              0              0              0.009383957  
      1600   0.85306893     0.01039849     0.47724764     5.5781161      0.03618356     0.047104439    0.034849984    0.026596257   -0.003183032    4.5073741e-05 -0.0020547399   27.65779       27.65779       27.65779       0              0              0              0.01039849   
      1700   1.0986437      0.011447534    0.047689879    1.5110716     -0.0018351858  -0.0025425484  -0.0020748388  -0.00088817021 -1.0866207e-05  0.0014576632   0.00089077918  26.785736      26.785736      26.785736      0              0              0              0.011447534  
      1800   1.1934516      0.012516279    0.10586046     1.0355325     -0.0096893585  -0.022206472    0.00021819107 -0.007079795   -6.317877e-05   0.00069144772  0.0027757591   26.000547      26.000547      26.000547      0              0              0              0.012516279  
      1900   0.91973634     0.013651328    0.44411409     5.6588857      0.047681175    0.064149873    0.041582939    0.037310713   -0.005211064   -0.0028041481  -0.0020213191   25.258987      25.258987      25.258987      0              0              0              0.013651328  
      2000   0.98704626     0.014801477    0.2787939     -0.22925219    -0.026658976   -0.04055286    -0.020517719   -0.018906348    0.0052723622   0.0062343026  -0.0023559798   24.587019      24.587019      24.587019      0              0              0              0.014801477  
      2100   1.2257325      0.015985323   -0.023780234    2.8479486      0.015147155    0.013552296    0.019939363    0.011949808   -0.0017201953  -0.0001275539   0.0013470517   23.964429      23.964429      23.964429      0              0              0              0.015985323  
      2200   0.98671069     0.017231803    0.16039557     4.6191805      0.04677838     0.064218441    0.042800876    0.033315824   -0.0072015723  -0.0027082633   0.0019514042   23.372078      23.372078      23.372078      0              0              0              0.017231803  
      2300   0.83194821     0.018476453    0.34229629    -0.92030695    -0.042063929   -0.065362723   -0.040283986   -0.020545077    0.01116573     0.00035619588  0.0026113611   22.835018      22.835018      22.835018      0              0              0              0.018476453  
      2400   1.0363862      0.019775213    0.030325496    3.8069698      0.040086835    0.041847976    0.046678374    0.031734154   -0.003753785   -0.0022910104  -0.0020768333   22.323751      22.323751      22.323751      0              0              0              0.019775213  
      2500   1.0088052      0.021118223   -0.045338387    3.2148001      0.033683501    0.040381746    0.033282297    0.027386459   -0.0026307452   0.0003731112  -0.00050339399  21.840124      21.840124      21.840124      0              0              0              0.021118223  
      2600   0.86316363     0.022457717    0.20690596    -0.63597863    -0.043509915   -0.061987773   -0.037028398   -0.031513573    0.0013952775  -0.0020198079   0.0083219145   21.396974      21.396974      21.396974      0              0              0              0.022457717  
      2700   0.91568018     0.023867125    0.14742389     4.1730386      0.057692525    0.072374665    0.056111052    0.044591859   -0.00069473615 -0.0025852225  -0.0038997533   20.96722       20.96722       20.96722       0              0              0              0.023867125  
      2800   1.0685054      0.025302329   -0.11013722     2.0328503      0.012610754    0.0079844768   0.017902393    0.011945391    0.0027645833   0.0014264065   0.0014719258   20.563044      20.563044      20.563044      0              0              0              0.025302329  
      2900   1.038563       0.026732984    0.044083889    0.3817508     -0.029464327   -0.033534948   -0.024818593   -0.03003944    -0.0043403476   0.0011801238   0.0093542243   20.189478      20.189478      20.189478      0              0              0              0.026732984  
      3000   0.95137189     0.028244188    0.19182695     4.663797       0.078366002    0.088373493    0.081264997    0.065459516    0.0035792872  -0.0018470616  -0.0031694495   19.822779      19.822779      19.822779      0              0              0              0.028244188  
      3100   1.0559966      0.029753307    0.017074544    0.75245947    -0.02273937    -0.035924602   -0.022388192   -0.0099053146  -0.00064775531 -0.0079028467   0.0083371793   19.481803      19.481803      19.481803      0              0              0              0.029753307  
      3200   1.1600448      0.031284952   -0.090257167    1.7759308      0.0038344281   0.0045951598   0.012187121   -0.0052789959  -0.01507119     0.0047413621   0.0076097646   19.158539      19.158539      19.158539      0              0              0              0.031284952  
      3300   1.0141268      0.032889992    0.050168967    4.1983979      0.078775857    0.084935548    0.08346349     0.067928533    0.010396634   -0.0005138057  -0.005235653    18.841681      18.841681      18.841681      0              0              0              0.032889992  
      3400   0.94425194     0.034471414    0.088173543    0.077777476   -0.044489813   -0.06314043    -0.034356009   -0.035973      -0.0023396041  -8.4588019e-05  0.0044739605   18.54903       18.54903       18.54903       0              0              0              0.034471414  
      3500   1.0542368      0.036107173   -0.10622612     2.5255469      0.034739189    0.038273072    0.045315829    0.020628668   -0.0016374948   0.0022310726   0.0086077243   18.264582      18.264582      18.264582      0              0              0              0.036107173  
      3600   0.98103541     0.037791583   -0.084512323    3.3385581      0.067299083    0.068539207    0.074772128    0.058585913    0.0074046026   0.010982243   -0.0031317705   17.98909       17.98909       17.98909       0              0              0              0.037791583  
      3700   0.90187178     0.039448885    0.016060783    0.035330778   -0.047581582   -0.066140387   -0.046087225   -0.030517135   -0.0042056238  -0.011580361    0.0028302619   17.733562      17.733562      17.733562      0              0              0              0.039448885  
      3800   0.95589963     0.041180437   -0.057771242    3.0896252      0.064418044    0.077567362    0.072850514    0.042836256   -0.0064103473   0.0022310835   0.0054511445   17.481442      17.481442      17.481442      0              0              0              0.041180437  
      3900   0.99277988     0.042941068   -0.1333487      2.3047505      0.037334341    0.027068555    0.040736262    0.044198204    0.0051170011  -0.0064592533   0.00041697054  17.23918       17.23918       17.23918       0              0              0              0.042941068  
      4000   0.96275046     0.044692037   -0.041896459    0.32538364    -0.043457926   -0.048629639   -0.032264435   -0.049479704   -0.0051412025   0.013884846    0.0093307349   17.011039      17.011039      17.011039      0              0              0              0.044692037  
      4100   1.0305143      0.046518672   -0.10724375     3.4957303      0.087325333    0.10097713     0.085839909    0.075158961   -0.01211793    -0.0062209586   0.0093741138   16.785404      16.785404      16.785404      0              0              0              0.046518672  
      4200   1.0741468      0.048341063   -0.17343537     1.6224         0.0084672161  -0.0027573455   0.012475243    0.015683751    0.005950395   -0.0097520482  -0.009735052    16.571767      16.571767      16.571767      0              0              0              0.048341063  
      4300   1.057937       0.050173055   -0.12784594     0.95716888    -0.022530261   -0.022144243   -0.0078756228  -0.037570919    0.013238943   -0.0021462562   0.033841504    16.367564      16.367564      16.367564      0              0              0              0.050173055  
      4400   1.0531565      0.052085459   -0.15764788     3.4418533      0.096010785    0.076202114    0.11572659     0.096103651   -0.017610016    0.0084825542  -0.005841892    16.16474       16.16474       16.16474       0              0              0              0.052085459  
      4500   1.0248147      0.053964917   -0.18321117     1.1895405     -0.0076916787  -0.0040507568  -0.0095398251  -0.0094844541   0.0032738241  -0.012116535   -0.0039404155   15.97486       15.97486       15.97486       0              0              0              0.053964917  
      4600   1.0146457      0.055878907   -0.21900967     1.3946876      0.0050463025   0.029476041    0.0081559958  -0.022493129   -0.0076727312   0.0048965432   0.019764466    15.790344      15.790344      15.790344      0              0              0              0.055878907  
      4700   0.94761739     0.057869182   -0.19428779     2.747162       0.080339831    0.071609287    0.088163613    0.081246592   -0.0020711181  -0.0026543699  -0.0051622752   15.607204      15.607204      15.607204      0              0              0              0.057869182  
      4800   0.88370891     0.059843074   -0.13833989     0.49372914    -0.037367459   -0.04569207    -0.035438894   -0.030971412    0.012315437   -0.013862589    0.0072971004   15.433684      15.433684      15.433684      0              0              0              0.059843074  
      4900   0.91456753     0.061863353   -0.16193111     2.0014623      0.044901622    0.052952854    0.046748164    0.035003848   -0.0075946508   0.00016983919 -0.0016567716   15.263814      15.263814      15.263814      0              0              0              0.061863353  
      5000   0.99296908     0.063907223   -0.24597566     2.2414058      0.058409753    0.068112651    0.064154999    0.04296161    -0.011963777   -0.00058618608  0.009626989    15.099327      15.099327      15.099327      0              0              0              0.063907223  
      5100   1.0308003      0.065949387   -0.24302504     1.1208168     -0.010469623   -0.019967581   -0.00012247241 -0.011318816   -0.0087874912   0.0091965556   0.0076426143   14.941836      14.941836      14.941836      0              0              0              0.065949387  
      5200   1.0684212      0.068020495   -0.23957336     1.9889968      0.039201545    0.028888771    0.046907542    0.041808321    0.020930353   -0.0017248058   0.0032938082   14.788619      14.788619      14.788619      0              0              0              0.068020495  
      5300   1.097881       0.070134332   -0.2761994      2.380083       0.06488669     0.065927729    0.068347282    0.060385059   -0.0043014808  -0.0017863057  -0.0069296846   14.638526      14.638526      14.638526      0              0              0              0.070134332  
      5400   1.073148       0.072224588   -0.25814937     1.2276504     -0.0076081139  -0.019321595    0.024791359   -0.028294106    0.0088295686  -0.027272316   -0.013958644    14.495923      14.495923      14.495923      0              0              0              0.072224588  
      5500   1.0280095      0.074393881   -0.24902487     2.1328738      0.0573235      0.05514785     0.047051669    0.06977098    -0.016025191    0.020465389    0.025981039    14.353632      14.353632      14.353632      0              0              0              0.074393881  
      5600   1.0070349      0.076583094   -0.30216217     1.7993502      0.04166906     0.027656672    0.068773471    0.028577036   -0.00073676128 -0.0089772442  -0.0024754182   14.215537      14.215537      14.215537      0              0              0              0.076583094  
      5700   0.9876104      0.078766944   -0.35232049     1.3303637      0.014942495    0.014019215    0.02125028     0.009557989    0.0082022984   0.035025622   -0.016522079    14.082926      14.082926      14.082926      0              0              0              0.078766944  
      5800   0.97484863     0.080983358   -0.40384179     2.0509829      0.073611157    0.07583149     0.090215108    0.054786874    0.011894703   -0.0077980277   0.001369752    13.953258      13.953258      13.953258      0              0              0              0.080983358  
      5900   0.90301148     0.083237265   -0.35887594     1.2513829      0.019864514    0.0089385817   0.040821165    0.0098337961  -0.003367329   -0.015424814   -0.010861244    13.826162      13.826162      13.826162      0              0              0              0.083237265  
      6000   0.92635647     0.085519235   -0.40924231     0.72962836    -0.01894767    -0.0097715622  -0.037074555   -0.0099968915  -0.013051083    0.0011915986   0.017058387    13.702073      13.702073      13.702073      0              0              0              0.085519235  
      6100   0.97025355     0.087860523   -0.46469187     2.1346481      0.091952954    0.091509442    0.10590364     0.078445786   -0.016957073    0.021335972    0.0026717184   13.579266      13.579266      13.579266      0              0              0              0.087860523  
      6200   0.99480118     0.090142229   -0.47116262     1.2640316      0.020524028    0.027814259    0.030067209    0.0036906155   0.026581941   -0.011205171   -0.020427889    13.463711      13.463711      13.463711      0              0              0              0.090142229  
      6300   1.0062871      0.092448901   -0.44417955     1.3546713      0.024958452   -0.014695607    0.036737525    0.052833439   -0.042451802    0.039526745    0.054673886    13.35079       13.35079       13.35079       0              0              0              0.092448901  
      6400   1.053132       0.094812421   -0.4941792      1.6961678      0.053314529    0.087306492    0.021294687    0.051342407    0.040544844   -0.035430949   -0.0093703962   13.238918      13.238918      13.238918      0              0              0              0.094812421  
      6500   1.035658       0.097192403   -0.46838568     1.6027988      0.046428367    0.038118519    0.035772201    0.065394381   -0.001972484    0.015581035   -0.0087164399   13.129962      13.129962      13.129962      0              0              0              0.097192403  
      6600   0.99465341     0.099592844   -0.42335349     1.3936313      0.030100992   -0.0089503714   0.072500146    0.026753202    0.025710871   -0.024836185    0.014839719    13.023614      13.023614      13.023614      0              0              0              0.099592844  
      6700   0.99462889     0.10203686    -0.45016912     1.6079332      0.053209317    0.084385935    0.05593183     0.019310185    0.0084795217   0.040904685    0.0018443618   12.918791      12.918791      12.918791      0              0              0              0.10203686   
      6800   1.0376733      0.10449806    -0.55662228     1.1101394      0.011213044   -0.015540779    0.0086175256   0.040562385    0.0018214977  -0.019722528   -0.0046588932   12.81656       12.81656       12.81656       0              0              0              0.10449806   
      6900   1.0551094      0.10698117    -0.63383475     1.3481466      0.039605462    0.075019397    0.057945626   -0.014148638    0.0097283698  -0.016995023   -0.022509521    12.716622      12.716622      12.716622      0              0              0              0.10698117   
      7000   0.98719132     0.10947023    -0.60217311     1.4933695      0.061916324    0.059682761    0.081496585    0.044569625    0.030104837   -0.0067747198   0.013532715    12.619502      12.619502      12.619502      0              0              0              0.10947023   
      7100   0.96528792     0.11198177    -0.64369525     0.89070542     0.0095396704  -0.00042491454  0.034081869   -0.0050379428  -0.010864918   -0.027816182    0.0068872286   12.524444      12.524444      12.524444      0              0              0              0.11198177   
      7200   0.96949162     0.11453322    -0.70017818     1.2626683      0.053714022    0.024595038    0.079702183    0.056844845   -0.022424667    0.014448887   -0.016159892    12.430743      12.430743      12.430743      0              0              0              0.11453322   
      7300   0.92441776     0.11710328    -0.66635701     0.86495304     0.016140722    0.015759649    0.01937767     0.013284846    0.025644398   -0.018675422   -0.022256119    12.33913       12.33913       12.33913       0              0              0              0.11710328   
      7400   0.9373813      0.11971585    -0.68675003     0.8535156      0.015369777    0.033705558    0.046797454   -0.03439368     0.011430323    0.027611041    0.0053446363   12.24871       12.24871       12.24871       0              0              0              0.11971585   
      7500   0.99177722     0.1223451     -0.74040752     1.4110596      0.074657164    0.053402087    0.080846425    0.089722981    0.014770179    0.0397278     -0.010774307    12.16033       12.16033       12.16033       0              0              0              0.1223451    
      7600   1.0456166      0.12496566    -0.78021846     0.71561811    -0.0073555086  -0.05075593     0.017019584    0.01166982    -0.017795652   -0.023297103    0.012405834    12.074727      12.074727      12.074727      0              0              0              0.12496566   
      7700   0.99777833     0.12764879    -0.66680389     0.95342151     0.015206597    0.073900195   -0.026518274   -0.0017621305   0.01309343     0.012623123    0.048361287    11.989525      11.989525      11.989525      0              0              0              0.12764879   
      7800   1.0311389      0.13036837    -0.68187829     1.3313269      0.056204222    0.086488021    0.05699808     0.025126563   -0.033777284    0.08616643     0.037673065    11.905569      11.905569      11.905569      0              0              0              0.13036837   
      7900   1.0729805      0.13307135    -0.73332968     1.1206459      0.030552241   -0.026394113    0.048906625    0.069144212    0.051422948   -0.012520563   -0.044360413    11.824407      11.824407      11.824407      0              0              0              0.13307135   
      8000   1.0605234      0.13581692    -0.73360386     0.79326216    -0.006910009   -0.024298977    0.018148695   -0.014579744   -0.040515107    0.012412992   -0.033404462    11.744186      11.744186      11.744186      0              0              0              0.13581692   
      8100   1.0357334      0.13863956    -0.74464665     1.5991695      0.1005747      0.13373548     0.073211429    0.094777191   -0.0023824287  -0.022601769    0.029643863    11.663937      11.663937      11.663937      0              0              0              0.13863956   
      8200   0.97546424     0.14138381    -0.71631755     0.59810539    -0.018181629   -0.0019498489  -0.036906741   -0.015688297    0.024935664    0.025421574    0.0069349353   11.587978      11.587978      11.587978      0              0              0              0.14138381   
      8300   0.96181824     0.14420824    -0.75591364     0.96936151     0.037987261    0.040040817    0.072061986    0.0018589813  -0.038859502    0.029005201    0.04173451     11.511826      11.511826      11.511826      0              0              0              0.14420824   
      8400   0.95241786     0.14708089    -0.79447667     1.0118281      0.051454389    0.072702814    0.038397828    0.043262524    0.036341644   -0.073028104   -0.026260422    11.436386      11.436386      11.436386      0              0              0              0.14708089   
      8500   0.94395625     0.14993291    -0.80716758     0.50460872    -0.013232045   -0.036743888   -0.046842313    0.043890065   -5.363739e-05  -0.033863995    0.033221177    11.363407      11.363407      11.363407      0              0              0              0.14993291   
      8600   0.97213362     0.15286152    -0.85736329     0.82905779     0.03272788     0.028826714    0.070602406   -0.0012454788  -0.050906248   -0.0019169087   0.066264902    11.29037       11.29037       11.29037       0              0              0              0.15286152   
      8700   0.98717982     0.15582318    -0.87760282     0.90742278     0.044148916    0.087532179    0.00033803008  0.044576539    0.032027111   -0.046820144   -0.051112472    11.218382      11.218382      11.218382      0              0              0              0.15582318   
      8800   1.0627081      0.15869504    -0.98051106     0.61329217     0.0011125037   0.026337079   -0.020630263   -0.0023693047  -0.0088559866  -0.044993162   -0.004293343    11.150297      11.150297      11.150297      0              0              0              0.15869504   
      8900   1.0444867      0.16163284    -0.96868281     1.0852357      0.072738022    0.042136964    0.084583307    0.091493797    0.0062234056  -0.014870477    0.046853052    11.082329      11.082329      11.082329      0              0              0              0.16163284   
      9000   1.0126144      0.16462284    -0.96279221     0.74750713     0.029777629    0.0075657845   0.086684218   -0.0049171159   0.0033377463   0.08512829    -0.02225208     11.014823      11.014823      11.014823      0              0              0              0.16462284   
      9100   1.0301266      0.16762686    -1.0476395      0.076066081   -0.06305184    -0.014389123   -0.12774419    -0.047022204    0.068069921    0.014350068   -0.01833871     10.948628      10.948628      10.948628      0              0              0              0.16762686   
      9200   1.0318348      0.17072104    -1.1253585      0.65428888     0.03719142     0.027723383    0.052198575    0.031652302   -0.10325985    -0.032498541    0.0086167995   10.882079      10.882079      10.882079      0              0              0              0.17072104   
      9300   0.98171942     0.17374369    -1.133845       1.2730546      0.14873777     0.23648505     0.0025718883   0.20715638    -0.016332244   -0.10465651     0.0092404605   10.818604      10.818604      10.818604      0              0              0              0.17374369   
      9400   0.98395802     0.17664819    -1.2286603      0.3992372      0.025588321   -0.010382733   -0.030432268    0.11757996     0.035992631    0.018728393   -0.044378057    10.758982      10.758982      10.758982      0              0              0              0.17664819   
      9500   0.96664256     0.179678      -1.2864397      0.22782024     0.011686562    0.044658116   -0.0096712981   7.2867629e-05  0.052187749    0.0031553038  -0.0030839554   10.698164      10.698164      10.698164      0              0              0              0.179678     
      9600   0.91296934     0.18284919    -1.2699109      0.025895371   -0.01110401     0.033759186   -0.072255788    0.0051845728   0.078146035    0.088447902    0.06427378     10.635956      10.635956      10.635956      0              0              0              0.18284919   
      9700   0.92702252     0.18605928    -1.3168677      0.19768755     0.0221536     -0.051940292    0.078427151    0.03997394    -0.061610591   -0.0024052505  -0.014580812    10.574434      10.574434      10.574434      0              0              0              0.18605928   
      9800   0.97395543     0.18928853    -1.3853031     -0.11878043    -0.03219726    -0.016535891    0.03495728    -0.11501317    -0.051646705   -0.073292864    0.021972123    10.513955      10.513955      10.513955      0              0              0              0.18928853   
      9900   1.0295138      0.19249245    -1.4388379     -0.036619859   -0.023507072    0.025328817   -0.056772186   -0.039077847    0.05498857     0.0394203     -0.010697663    10.455296      10.455296      10.455296      0              0              0              0.19249245   
     10000   1.0281207      0.19569169    -1.4109749      0.11239634    -0.0019745144   0.036610766   -0.035299647   -0.0072346623   0.049055706   -0.040591685    0.066909507    10.398007      10.398007      10.398007      0              0              0              0.19569169   
     10100   1.0512202      0.19882057    -1.4238136      0.5671512      0.076278171   -0.0094364553   0.033081684    0.20518928    -0.077404737   -0.091570762   -0.019828728    10.343173      10.343173      10.343173      0              0              0              0.19882057   
     10200   1.0759452      0.2019402     -1.4594009      0.43749129     0.05343042     0.044029588    0.019196622    0.097065049    0.095222686    0.13124091     0.022529922    10.289635      10.289635      10.289635      0              0              0              0.2019402    
     10300   1.0916313      0.20515555    -1.5160497     -0.45647067    -0.10624832    -0.17085572    -0.079549963   -0.068339275   -0.018968291    0.002568549   -0.062720945    10.235596      10.235596      10.235596      0              0              0              0.20515555   
     10400   1.0135124      0.20851978    -1.4705586      0.083645398    0.0078738422   0.042346529    0.039828151   -0.058553153   -0.098914995   -0.032491886   -0.0099931528   10.180251      10.180251      10.180251      0              0              0              0.20851978   
     10500   1.0137728      0.21187321    -1.5583847      0.17821765     0.043057734    0.064173546    0.022744564    0.042255092    0.0017600205   0.028825096    0.045517525    10.126255      10.126255      10.126255      0              0              0              0.21187321   
     10600   1.0536646      0.21519993    -1.699982      -0.035172314    0.018040657   -0.013476968   -0.013462445    0.081061383    0.030743682   -0.015576179    0.074599614    10.073805      10.073805      10.073805      0              0              0              0.21519993   
     10700   0.99033078     0.21850338    -1.6951523     -0.27060875    -0.010632205    0.036961283   -0.016130978   -0.052726921   -0.057796918   -0.0082410015  -0.026176381    10.022779      10.022779      10.022779      0              0              0              0.21850338   
     10800   0.95485843     0.22178248    -1.7259418      0.010041492    0.062675137    0.10968092     0.1035604     -0.025215914    0.0081291127  -0.09023517    -0.013595477    9.9731378      9.9731378      9.9731378      0              0              0              0.22178248   
     10900   0.9887478      0.2251328     -1.851245      -0.081231437    0.060234794   -0.04932739     0.10833549     0.12169629    -0.0053907974   0.046600166    0.066304206    9.9234183      9.9234183      9.9234183      0              0              0              0.2251328    
     11000   0.97125304     0.22852839    -1.8782627     -0.72805021    -0.062197667    0.065374333   -0.17732515    -0.074642189    0.030659416   -0.10153436     0.15907894     9.874024       9.874024       9.874024       0              0              0              0.22852839   
     11100   0.90577612     0.23199469    -1.8163265     -0.89205184    -0.090181873   -0.045695113   -0.13554638    -0.089304127    0.03959767    -0.033574596    0.02512605     9.8246         9.8246         9.8246         0              0              0              0.23199469   
     11200   0.95644934     0.2356291     -1.9046704     -0.28947718     0.040205297    0.056099222    0.068445115   -0.0039284465  -0.1196231      0.043059675   -0.10948679     9.7738255      9.7738255      9.7738255      0              0              0              0.2356291    
     11300   0.97429948     0.23918827    -1.9187153     -0.9019375     -0.095102166   -0.092457328   -0.13516409    -0.05768508     0.039061211    0.089147972   -0.082323884    9.7251043      9.7251043      9.7251043      0              0              0              0.23918827   
     11400   1.0209666      0.24286657    -1.9637668     -0.47761775    -0.0083112542   0.097950939   -0.053126946   -0.069757755    0.0075149463   0.10254292    -0.048764083    9.6757576      9.6757576      9.6757576      0              0              0              0.24286657   
     11500   1.0771986      0.24646259    -2.0174505      0.25310428     0.14851297     0.14547083     0.14652424     0.15354383     0.049951178    0.02987846    -0.031082262    9.6284687      9.6284687      9.6284687      0              0              0              0.24646259   
     11600   1.1092724      0.24975795    -2.0590406     -0.080949698    0.07322492     0.053618419    0.16471587     0.0013404679   0.021431964   -0.16941337     0.075050658    9.5859344      9.5859344      9.5859344      0              0              0              0.24975795   
     11700   1.0737261      0.25304273    -2.0507843      0.32004111     0.17673637     0.22310132     0.20777637     0.099331413   -0.036647375   -0.035780607    0.095716577    9.5442748      9.5442748      9.5442748      0              0              0              0.25304273   
     11800   1.027296       0.25635229    -2.0627161     -0.52728998     0.00050964377  0.0097499605  -0.052914378    0.044693349    0.015920048    0.1698291     -0.15510618     9.503024       9.503024       9.503024       0              0              0              0.25635229   
     11900   0.93462289     0.2599805     -2.0067484     -0.41306961     0.046974729    0.090345292   -0.023226722    0.073805616    0.10765008     0.017213336    0.10365758     9.4586096      9.4586096      9.4586096      0              0              0              0.2599805    
     12000   0.89905429     0.26360314    -2.0053038     -0.75607713    -0.022193441    0.0055251357   0.023548196   -0.095653655    0.036421702    0.13670276    -0.040913274    9.4150805      9.4150805      9.4150805      0              0              0              0.26360314   
     12100   0.94597963     0.26724775    -2.0949695     -0.74726832    -0.0155911     -0.0086330003  -0.041274211    0.003133912    0.020665665    0.033754946    0.017821705    9.3720847      9.3720847      9.3720847      0              0              0              0.26724775   
     12200   0.98291988     0.27100315    -2.1457418     -0.83865524    -0.039399276   -0.0020859745  -0.11624646     0.00013460174  0.052748398    0.080009408   -0.030154038    9.3285923      9.3285923      9.3285923      0              0              0              0.27100315   
     12300   0.97350399     0.27486585    -2.1031588     -0.68311662    -0.0082241197   0.12877883    -0.093511395   -0.059939796   -0.11614994    -0.032539467    0.033831284    9.2846877      9.2846877      9.2846877      0              0              0              0.27486585   
     12400   0.99111449     0.27872296    -2.0890602     -0.73479868    -0.031667207   -0.055367264   -0.13228563     0.092651267   -0.01121701    -0.081514242   -0.072399898    9.2416598      9.2416598      9.2416598      0              0              0              0.27872296   
     12500   1.0388551      0.28257372    -2.1235467     -0.84386061    -0.069565829   -0.15318752     0.14108091    -0.19659088    -0.08500743     0.021182858    0.018895358    9.1994875      9.1994875      9.1994875      0              0              0              0.28257372   
     12600   1.0515331      0.28652813    -2.1247495     -0.13906886     0.10842939     0.063090327    0.07566908     0.18652878     0.05425512     0.08900838    -0.075683219    9.1569703      9.1569703      9.1569703      0              0              0              0.28652813   
     12700   1.0528315      0.29020701    -2.1299782     -0.38930033     0.044672566    0.11478867    -0.12382786     0.14305689     0.083906658    0.0070590055  -0.058811367    9.1181121      9.1181121      9.1181121      0              0              0              0.29020701   
     12800   1.06162        0.2936863     -2.1745828     -0.58272606     0.0019727388   0.0230292      0.061858334   -0.078969318    0.024145408   -0.072302908    0.031984329    9.0819617      9.0819617      9.0819617      0              0              0              0.2936863    
     12900   0.9824223      0.29747662    -2.1177815     -0.3775756      0.074082666    0.006990644    0.3044464     -0.089189044   -0.059715395   -0.070139229    0.057676394    9.0432238      9.0432238      9.0432238      0              0              0              0.29747662   
     13000   0.95732781     0.30109667    -2.1220002     -0.71503652    -0.0059803406   0.026160994   -0.025553054   -0.018548962   -0.15504186    -0.0026091031   0.016846413    9.0068357      9.0068357      9.0068357      0              0              0              0.30109667   
     13100   0.91955693     0.30502749    -2.1061318     -0.69437203     0.010903631   -0.14385705     0.15245158     0.024116363   -0.030752157   -0.15468362     0.091187977    8.9679787      8.9679787      8.9679787      0              0              0              0.30502749   
     13200   0.9116854      0.30909518    -2.1089298     -0.82689435    -0.022101716   -0.027014769   -0.16161845     0.12232807     0.046633975    0.015377239   -0.065717509    8.9284653      8.9284653      8.9284653      0              0              0              0.30909518   
     13300   0.94541685     0.3131495     -2.1519378     -0.74989851    -0.002560803    0.090066026   -0.044385968   -0.053362467   -0.084779971   -0.13140326    -0.026219133    8.8897658      8.8897658      8.8897658      0              0              0              0.3131495    
     13400   1.0010908      0.31711504    -2.2037654     -0.78966226    -0.023070092   -0.0082197288  -0.056686546   -0.0043039998   0.047870748   -0.045788923    0.16030329     8.8525546      8.8525546      8.8525546      0              0              0              0.31711504   
     13500   0.9879191      0.32106077    -2.1425051     -0.60780402     0.017580083   -0.14083183     0.079643606    0.11392848     0.26042382    -0.14104687     0.087223375    8.81614        8.81614        8.81614        0              0              0              0.32106077   
     13600   1.1235829      0.32500038    -2.3034103     -0.7931368     -0.049244634   -0.043519595   -0.10240666    -0.0018076501  -0.045632617   -0.068760543    0.043642271    8.7803724      8.7803724      8.7803724      0              0              0              0.32500038   
     13700   1.0323081      0.3289262     -2.1543071     -0.42245991     0.057151631   -0.0657791      0.28669006    -0.049456069    0.070975919    0.016125583   -0.070303387    8.7453005      8.7453005      8.7453005      0              0              0              0.3289262    
     13800   1.051669       0.33272703    -2.2050419     -0.75708933    -0.036800654    0.082528162   -0.2153663      0.022436177    0.1481283      0.0022190031   0.082330224    8.7118729      8.7118729      8.7118729      0              0              0              0.33272703   
     13900   1.0549071      0.33651902    -2.2504226     -1.4613985     -0.24028213    -0.29903817    -0.24597091    -0.17583732    -0.066005595   -0.025705158   -0.071389368    8.6790266      8.6790266      8.6790266      0              0              0              0.33651902   
     14000   0.94412564     0.34094434    -2.1578644     -0.71698831     0.0098466579  -0.0081574836   0.033061279    0.004636178   -0.065366598   -0.044360764   -0.059321175    8.6413129      8.6413129      8.6413129      0              0              0              0.34094434   
     14100   0.95246183     0.34530656    -2.2271009     -1.4753672     -0.21026518    -0.052375434   -0.31303056    -0.26538955     0.0090688861   0.082672767   -0.10524785     8.6047704      8.6047704      8.6047704      0              0              0              0.34530656   
     14200   0.90051437     0.34973131    -2.1764468     -0.91999139    -0.027839351    0.10360577     0.012495395   -0.19961922     0.18793289    -0.080187824    0.072306032    8.5683275      8.5683275      8.5683275      0              0              0              0.34973131   
     14300   0.93110838     0.35411557    -2.2178473     -0.54330426     0.091704287    0.020197689    0.031623657    0.22329152    -0.25393592     0.11327678     0.13390686     8.5328194      8.5328194      8.5328194      0              0              0              0.35411557   
     14400   0.93684127     0.35812325    -2.1638833     -1.0615444     -0.096334085   -0.19780561    -0.18779385     0.09659721    -0.028019314   -0.060225626   -0.21374968     8.5008703      8.5008703      8.5008703      0              0              0              0.35812325   
     14500   1.0151463      0.36242291    -2.1735164     -0.37230825     0.094263645   -0.028412957    0.2406267      0.070577191    0.056027141    0.049097286    0.14472757     8.4671193      8.4671193      8.4671193      0              0              0              0.36242291   
     14600   1.0811593      0.36673006    -2.1909284     -1.2897784     -0.23753447    -0.29649842    -0.22320106    -0.19290394    -0.048891347    0.27691697    -0.11773331     8.4338407      8.4338407      8.4338407      0              0              0              0.36673006   
     14700   1.0500945      0.37136055    -2.1235377     -0.6358794     -0.026875603   -0.011176967   -0.10400594     0.034556092    0.095717476   -0.061490129    0.11397329     8.3986401      8.3986401      8.3986401      0              0              0              0.37136055   
     14800   1.0510624      0.37559327    -2.1383895     -0.53602234     0.011491939    0.044252354    0.11092831    -0.12070485     0.019957793    0.046430575   -0.022301202    8.3669715      8.3669715      8.3669715      0              0              0              0.37559327   
     14900   1.0507745      0.37973608    -2.1844948     -0.17094155     0.15371451     0.16372103     0.38369092    -0.086268416    0.22751309    -0.064366408   -0.0028563885   8.3364331      8.3364331      8.3364331      0              0              0              0.37973608   
     15000   1.1280975      0.38368934    -2.3626787     -1.2119274     -0.18589199    -0.31663982    -0.21552771    -0.025508444   -0.042973109   -0.039038787   -0.1701663      8.3077034      8.3077034      8.3077034      0              0              0              0.38368934   
     15100   1.009314       0.38793472    -2.2632003     -0.91817334    -0.056911536   -0.034934424   -0.20139926     0.065599078    0.14056025    -0.033944997    0.10631279     8.2772869      8.2772869      8.2772869      0              0              0              0.38793472   
     15200   0.94015004     0.39225414    -2.2242062     -0.55816284     0.093737819   -0.088968584    0.22797627     0.14220577    -0.1021484      0.091700707   -0.27742624     8.2467921      8.2467921      8.2467921      0              0              0              0.39225414   
     15300   0.93888176     0.39657952    -2.258518      -0.92821729    -0.02559032    -0.027782019   -0.018931707   -0.030057233    0.14204414    -0.21334548    -0.044106324    8.2167007      8.2167007      8.2167007      0              0              0              0.39657952   
     15400   1.0002734      0.40117624    -2.3628066     -1.1272457     -0.093855942   -0.24968975    -0.019191776   -0.012686304   -0.14272838     0.20523053     0.034945012    8.1851974      8.1851974      8.1851974      0              0              0              0.40117624   
     15500   0.95038481     0.40584842    -2.2955729     -0.47541799     0.14821052     0.1856039      0.15315204     0.10587563     0.01776563     0.094005376    0.090632137    8.1536664      8.1536664      8.1536664      0              0              0              0.40584842   
     15600   1.0091222      0.41027316    -2.3783299     -1.7239096     -0.31766132    -0.40199543    -0.34080121    -0.21018731     0.12495807    -0.18585622    -0.18423765     8.1242484      8.1242484      8.1242484      0              0              0              0.41027316   
     15700   0.99218361     0.41509687    -2.3461918     -1.2689779     -0.15231042    -0.077271323   -0.085244936   -0.29441499    -0.03078385    -0.075637645    0.013210089    8.0926559      8.0926559      8.0926559      0              0              0              0.41509687   
     15800   1.0765223      0.42002199    -2.4835002     -0.81995019     0.02170385     0.15302862     0.10019689    -0.18811396     0.059672437    0.011965089   -0.037827288    8.0609003      8.0609003      8.0609003      0              0              0              0.42002199   
     15900   1.0658589      0.42468373    -2.5256524     -1.0767866     -0.054795296   -0.084164968   -0.05670168    -0.023519238    0.06857709    -0.16533482    -0.039364966    8.031297       8.031297       8.031297       0              0              0              0.42468373   
     16000   1.0215322      0.42907665    -2.5696107     -1.5947029     -0.21443262    -0.037728944   -0.40196123    -0.20360769     0.083791325   -0.23165823    -0.037073362    8.0037946      8.0037946      8.0037946      0              0              0              0.42907665   
     16100   1.0163865      0.43393274    -2.6770064     -1.3142433     -0.060827037    0.13277676    -0.20890718    -0.10635069     0.13154726     0.27644402     0.12775749     7.973826       7.973826       7.973826       0              0              0              0.43393274   
     16200   1.0118756      0.43865107    -2.7328618     -1.6966899     -0.18903963    -0.1267128      0.033704551   -0.47411063     0.12184828     0.0013896576   0.054820401    7.9451328      7.9451328      7.9451328      0              0              0              0.43865107   
     16300   0.99675724     0.44306972    -2.7394935     -1.1472192      0.042137579    0.037460919    0.048835471    0.040116345   -0.040199973   -0.074505917    0.10891352     7.9186328      7.9186328      7.9186328      0              0              0              0.44306972   
     16400   0.9755639      0.44758678    -2.7338402     -1.2902083     -0.0050443868   0.22368665    -0.098658132   -0.14016168    -0.20320147     0.041231014   -0.18410311     7.8919043      7.8919043      7.8919043      0              0              0              0.44758678   
     16500   1.0417122      0.45226487    -2.8488671     -1.800501      -0.20820196    -0.34921837    -0.092070011   -0.18331749    -0.059672743    0.24091139     0.033368189    7.8645995      7.8645995      7.8645995      0              0              0              0.45226487   
     16600   0.9587377      0.45708079    -2.7467109     -0.89700746     0.1740179     -0.09261936     0.42505288     0.18962019     0.1490323     -0.11999202     0.085701033    7.8368807      7.8368807      7.8368807      0              0              0              0.45708079   
     16700   1.0390172      0.4615606     -2.8936397     -1.127424       0.09041659     0.11795682     0.15629481    -0.0030018694  -0.12225623     0.1634338      0.018130944    7.8114439      7.8114439      7.8114439      0              0              0              0.4615606    
     16800   0.97441227     0.466066      -2.8426359     -1.5360107     -0.06257365    -0.09785511     0.071536279   -0.16140212    -0.089246748    0.12492273    -0.062878486    7.7861916      7.7861916      7.7861916      0              0              0              0.466066     
     16900   0.94290183     0.47054457    -2.8367479     -1.9712734     -0.23176737    -0.14279209    -0.24571431    -0.30679571    -0.025612202    0.16130538    -0.029114417    7.7614102      7.7614102      7.7614102      0              0              0              0.47054457   
     17000   0.86723586     0.47583504    -2.7657908     -1.1367296      0.14478869     0.073468913    0.09371855     0.2671786      0.003053319   -0.10770795    -0.18261665     7.7325384      7.7325384      7.7325384      0              0              0              0.47583504   
     17100   0.89030899     0.48082353    -2.8048598     -2.1977034     -0.31543327    -0.19451773    -0.42602043    -0.32576164     0.1246504      0.14926599    -0.064539942    7.705704       7.705704       7.705704       0              0              0              0.48082353   
     17200   0.93678307     0.48623475    -2.8384689     -2.2959646     -0.37822187    -0.54594463    -0.00098397681 -0.587737       0.016091642   -0.10657927     0.044953023    7.6770121      7.6770121      7.6770121      0              0              0              0.48623475   
     17300   1.0076881      0.49191677    -2.8511604     -0.9024808      0.19887085     0.19434209     0.3833282      0.018942258   -0.17898924     0.12027565    -0.20589703     7.6473391      7.6473391      7.6473391      0              0              0              0.49191677   
     17400   1.0375237      0.49688857    -2.8027655     -0.98621434     0.12108137     0.17085869     0.25024469    -0.057859272    0.048214857   -0.087386151    0.025484709    7.6217475      7.6217475      7.6217475      0              0              0              0.49688857   
     17500   1.0632324      0.50130728    -2.8004608     -1.2262369     -0.0057652246   0.11388955    -0.032385101   -0.098800125   -0.0019985612   0.012936005   -0.27488999     7.5992877      7.5992877      7.5992877      0              0              0              0.50130728   
     17600   1.0937155      0.50557023    -2.8472303     -1.1602099      0.02511767     0.20988685    -0.005179103   -0.12935474    -0.045285526    0.19790014     0.026609066    7.5778684      7.5778684      7.5778684      0              0              0              0.50557023   
     17700   1.048123       0.50990885    -2.8107049     -1.2452724      0.00051401239 -0.0080089365   0.35228412    -0.34273314     0.12449063     0.25002389     0.033452145    7.5563148      7.5563148      7.5563148      0              0              0              0.50990885   
     17800   1.0519349      0.5142311     -2.8581921     -0.90258661     0.18025794     0.10608279     0.24442224     0.19026878    -0.040881152   -0.10636317     0.063698645    7.5350843      7.5350843      7.5350843      0              0              0              0.5142311    
     17900   1.0188882      0.51845543    -2.8611327     -1.7650625     -0.20013346    -0.21100903    -0.10044412    -0.28894725     0.14328684    -0.055414166    0.14645956     7.5145634      7.5145634      7.5145634      0              0              0              0.51845543   
     18000   0.98094383     0.52349326    -2.8688745     -1.7490214     -0.16380846    -0.17550468     0.27605845    -0.59197916     0.24177858    -0.10838141     0.1210895      7.4903802      7.4903802      7.4903802      0              0              0              0.52349326   
     18100   0.97539849     0.52888096    -2.9248744     -1.3247118      0.069418198    0.059196664    0.047351029    0.1017069      0.12825837    -0.0083416103   0.18440548     7.4648585      7.4648585      7.4648585      0              0              0              0.52888096   
     18200   1.0091481      0.53388378    -3.0147585     -1.8036636     -0.14320641    -0.11816739    -0.29393462    -0.01751721     0.048852557   -0.08077595     0.022042664    7.4414686      7.4414686      7.4414686      0              0              0              0.53388378   
     18300   0.9627255      0.53897682    -2.9650165     -1.817062      -0.14156146    -0.088425439   -0.049839498   -0.28641945    -0.014904156   -0.10216606    -0.0073503873   7.4179551      7.4179551      7.4179551      0              0              0              0.53897682   
     18400   0.95592025     0.5441028     -2.9613433     -1.5857308     -0.025275304   -0.17577886     0.0035186365   0.096434309    0.18561614    -0.07767992     0.43488914     7.3945867      7.3945867      7.3945867      0              0              0              0.5441028    
     18500   1.0034198      0.54922618    -3.0203982     -2.174628      -0.32545834    -0.5684172     -0.056186034   -0.35177177    -0.065762432    0.0071044903  -0.048149015    7.3715217      7.3715217      7.3715217      0              0              0              0.54922618   
     18600   1.0012401      0.55474894    -3.0065837     -1.9648565     -0.22826592    -0.57001856     0.0049743179  -0.11975351     0.037425553   -0.25944668    -0.055660482    7.3469779      7.3469779      7.3469779      0              0              0              0.55474894   
     18700   0.99764834     0.5605693     -3.0067395     -1.4742595      0.022162807    0.33096725    -0.19364048    -0.07083836     0.035711026    0.21860347     0.035697578    7.3214616      7.3214616      7.3214616      0              0              0              0.5605693    
     18800   1.0388518      0.56594788    -3.0763347     -1.5830955     -0.029453549    0.11169961    -0.044472619   -0.15558763     0.4106186      0.11168858    -0.027177211    7.2981942      7.2981942      7.2981942      0              0              0              0.56594788   
     18900   0.99867798     0.57105443    -3.0344955     -1.448025       0.049808212   -0.50228888     0.22186588     0.42984763    -0.25503048     0.21225093    -0.15696543     7.2763748      7.2763748      7.2763748      0              0              0              0.57105443   
     19000   1.0603409      0.57601391    -3.1528785     -1.8281138     -0.13499358    -0.19545941    -0.11767809    -0.091843228   -0.0017091671   0.040529868    0.19335594     7.2554313      7.2554313      7.2554313      0              0              0              0.57601391   
     19100   0.96950981     0.58118258    -3.060489      -1.9957107     -0.20194252    -0.083268358    0.055580559   -0.57813977    -0.070397125   -0.054627467    0.10704871     7.2338588      7.2338588      7.2338588      0              0              0              0.58118258   
     19200   1.0319452      0.58645038    -3.1906741     -1.7081966     -0.030762312   -0.15455289    -0.24910093     0.31136688    -0.15092464    -0.075527498   -0.27840973     7.2121343      7.2121343      7.2121343      0              0              0              0.58645038   
     19300   1.0265111      0.59158155    -3.2315417     -1.4493805      0.1345006      0.041740527    0.26880117     0.092960088   -0.086252855    0.026661611   -0.25626961     7.1912219      7.1912219      7.1912219      0              0              0              0.59158155   
     19400   0.90259876     0.59674687    -3.1019553     -1.7810951     -0.014250519   -0.31491981    -0.048975114    0.32114337    -0.023829589   -0.077768408   -0.10902484     7.1704131      7.1704131      7.1704131      0              0              0              0.59674687   
     19500   0.97249738     0.60211228    -3.2565781     -2.2983884     -0.26999959    -0.39351431    -0.31281497    -0.10366948     0.045830861    0.1550515     -0.019629259    7.149051       7.149051       7.149051       0              0              0              0.60211228   
     19600   0.97856304     0.60797856    -3.2994546     -2.45703       -0.34161806    -0.10180848    -0.50165567    -0.42139002     0.022525116   -0.21724684    -0.10484387     7.1259834      7.1259834      7.1259834      0              0              0              0.60797856   
     19700   0.92961501     0.61417057    -3.247141      -2.3394963     -0.2678932     -0.12450715    -0.52087273    -0.15829974    -0.22240784     0.037563479    0.30940528     7.1019546      7.1019546      7.1019546      0              0              0              0.61417057   
     19800   0.91220269     0.62036939    -3.2283423     -1.9829307     -0.065449497   -0.02972917     0.081517829   -0.24813715    -0.20368464     0.013234222   -0.25846763     7.0782208      7.0782208      7.0782208      0              0              0              0.62036939   
     19900   0.98469549     0.62606086    -3.2896879     -1.3540443      0.26521397     0.42437082     0.27161052     0.099660561   -0.22335658    -0.21448659    -0.19749148     7.0567063      7.0567063      7.0567063      0              0              0              0.62606086   
     20000   1.069167       0.63088165    -3.3274033     -1.4188175      0.17943076     0.1132334      0.41160117     0.013457704    0.090689526    0.089754323    0.11460423     7.0386861      7.0386861      7.0386861      0              0              0              0.63088165   
     20100   1.0747745      0.63537443    -3.2673436     -1.4832111      0.1039886      0.35517088     0.15287987    -0.19608494    -0.13456996     0.12125216     0.13360331     7.0220565      7.0220565      7.0220565      0              0              0              0.63537443   
     20200   1.0655296      0.63998317    -3.227495      -1.7061593     -0.040125327   -0.42103962     0.037885467    0.26277817    -0.27582092     0.081510595    0.2171232      7.0051597      7.0051597      7.0051597      0              0              0              0.63998317   
     20300   1.0816345      0.6450485     -3.2827109     -1.951984      -0.16631256    -0.52930578     0.17708649    -0.14671839     0.075414483   -0.00061797468  0.22438788     6.9867752      6.9867752      6.9867752      0              0              0              0.6450485    
     20400   1.0910978      0.6504238     -3.3766798     -2.3051143     -0.32929065    -0.14152042    -0.4703454     -0.37600614    -0.12480474     0.15415701     0.051008975    6.967475       6.967475       6.967475       0              0              0              0.6504238    
     20500   1.0198973      0.65619803    -3.3741057     -1.561767       0.17308233     0.4965403      0.21603701    -0.19333032    -0.07229003    -0.35401903    -0.26832738     6.9469779      6.9469779      6.9469779      0              0              0              0.65619803   
     20600   1.075592       0.6617865     -3.5401205     -2.2693657     -0.20128313     0.041222666   -0.64279882    -0.0022732437   0.10562904    -0.43421926    -0.25088837     6.927368       6.927368       6.927368       0              0              0              0.6617865    
     20700   1.047991       0.66760819    -3.5477303     -2.3335199     -0.21236988    -0.29725608     0.040117544   -0.37997111    -0.16294609    -0.016831418   -0.024125481    6.9071731      6.9071731      6.9071731      0              0              0              0.66760819   
     20800   1.0192651      0.67357107    -3.5484785     -2.4235286     -0.24267127    -0.29357882    -0.10826154    -0.32617346     0.28642532     0.26752392    -0.004285816    6.8867305      6.8867305      6.8867305      0              0              0              0.67357107   
     20900   1.0201019      0.67966503    -3.5903313     -2.6204144     -0.34142985    -0.16027234    -0.5544675     -0.30954971    -0.011884695    0.29137539     0.040799884    6.8660862      6.8660862      6.8660862      0              0              0              0.67966503   
     21000   1.0374871      0.68548473    -3.6442771     -2.1408281     -0.028042903   -0.082117822    0.28737577    -0.28938666    -0.14480404     0.054212652   -0.086762956    6.8466002      6.8466002      6.8466002      0              0              0              0.68548473   
     21100   1.0791416      0.69103669    -3.7502622     -2.3619128     -0.13963302    -0.19738772    -0.53452046     0.31300912    -0.18309655    -0.48323718    -0.094718877    6.8282151      6.8282151      6.8282151      0              0              0              0.69103669   
     21200   0.95082886     0.69655623    -3.6135195     -2.283166      -0.056204841    0.027613184   -0.2137047      0.017476997    0.14411435     0.43155428    -0.11142143     6.8101315      6.8101315      6.8101315      0              0              0              0.69655623   
     21300   0.96902507     0.70213907    -3.6862825     -2.5017492     -0.16706867    -0.28968981     0.071699513   -0.28321571    -0.085904275    0.059567873   -0.23683071     6.7920339      6.7920339      6.7920339      0              0              0              0.70213907   
     21400   0.93940247     0.70776193    -3.677197      -1.970313       0.19613099     0.34014177     0.10834782     0.13990339     0.59270901     0.024512015   -0.0090297077   6.7739995      6.7739995      6.7739995      0              0              0              0.70776193   
     21500   0.98003998     0.71341958    -3.7740514     -2.8983227     -0.38069428    -0.23436837    -0.64310617    -0.26460828     0.34211098    -0.05121097    -0.045922831    6.7560453      6.7560453      6.7560453      0              0              0              0.71341958   
     21600   0.95451722     0.71981011    -3.7802397     -2.4366259     -0.053006239   -0.091312322    0.11882233    -0.18652872    -0.19907789     0.43086336     0.19973754     6.7359922      6.7359922      6.7359922      0              0              0              0.71981011   
     21700   0.96298649     0.72615539    -3.8482624     -2.3426689      0.045111504    0.58767695    -0.54144893     0.089106501   -0.36869478     0.42686108    -0.32715873     6.7163147      6.7163147      6.7163147      0              0              0              0.72615539   
     21800   0.96419774     0.73184578    -3.9059714     -3.0151722     -0.3647692     -0.32618923    -0.17622565    -0.59189271    -0.28250416     0.12155931     0.0036369529   6.6988621      6.6988621      6.6988621      0              0              0              0.73184578   
     21900   0.93645299     0.73749065    -3.9191264     -2.7646681     -0.16305102    -0.51802099     0.47541663    -0.44654869    -0.31776136    -0.035081775    0.27559384     6.6817269      6.6817269      6.6817269      0              0              0              0.73749065   
     22000   0.91470551     0.74306378    -3.9224235     -2.5583017     -0.0007269209   0.063440856    0.15090504    -0.21652666    -0.10731865    -0.27373382    -0.13201184     6.6649802      6.6649802      6.6649802      0              0              0              0.74306378   
     22100   0.97133301     0.74856849    -4.0103307     -2.4549168      0.071930233    0.24978396     0.24738684    -0.2813801     -0.13177959     0.065140004   -0.0065217286   6.6486027      6.6486027      6.6486027      0              0              0              0.74856849   
     22200   1.0059248      0.75432092    -4.0498149     -3.2135133     -0.45604951    -0.57686854    -0.24993417    -0.54134584     0.03751921    -0.068600154   -0.24039157     6.6316589      6.6316589      6.6316589      0              0              0              0.75432092   
     22300   1.0221696      0.76063372    -4.0398962     -2.0001078      0.35556189     0.4129665      0.061287694    0.59243148     0.37192115    -0.0022754329   0.025916951    6.6132616      6.6132616      6.6132616      0              0              0              0.76063372   
     22400   1.0206635      0.76544852    -3.9876987     -1.9860484      0.33283798     0.44197112    -0.34999029     0.9065331     -0.12235158    -0.34146848     0.5778748      6.5993662      6.5993662      6.5993662      0              0              0              0.76544852   
     22500   1.1272026      0.76955017    -4.0827677     -2.5645558     -0.11482944    -0.35214731    -0.13000451     0.13766349    -0.44215354     0.2624348      0.52903217     6.5876206      6.5876206      6.5876206      0              0              0              0.76955017   
     22600   1.0725395      0.77409598    -3.9670381     -1.5001829      0.60948803     0.63520259     0.6895143      0.50374719     0.079927093    0.04029828     0.11583963     6.5747002      6.5747002      6.5747002      0              0              0              0.77409598   
     22700   1.1190006      0.77731773    -4.0450036     -1.888283       0.34386574     0.01675133     0.78012367     0.23472223     0.2186639     -0.032868661   -0.013609409    6.5656042      6.5656042      6.5656042      0              0              0              0.77731773   
     22800   1.0829863      0.78053888    -4.082144      -2.1819064      0.20143624    -0.080792762    0.43498689     0.25011458    -0.29267955    -0.059136127    0.08174202     6.5565601      6.5565601      6.5565601      0              0              0              0.78053888   
     22900   0.96996109     0.78407157    -4.0478878     -1.9109116      0.49133436     0.61154703     0.46412925     0.39832682    -0.11223939     0.753584       0.019422882    6.5466983      6.5466983      6.5466983      0              0              0              0.78407157   
     23000   1.0025113      0.78742384    -4.1599832     -1.9381643      0.51939243     0.9663083      0.24103588     0.35083312    -0.28015198    -0.10668411     0.28451018     6.5373947      6.5373947      6.5373947      0              0              0              0.78742384   
     23100   0.9650851      0.79065708    -4.1350343     -1.4971839      0.86070994     0.56104121     1.0061387      1.0149499      0.041002795    0.38836333    -0.034116551    6.5284714      6.5284714      6.5284714      0              0              0              0.79065708   
     23200   0.95084722     0.79300759    -4.1306833     -1.7621168      0.68445712     0.54112229     1.1355513      0.37669777     0.18379238    -0.15180335     0.046957921    6.5220148      6.5220148      6.5220148      0              0              0              0.79300759   
     23300   0.99910962     0.7955761     -4.2104088     -2.468019       0.18169417     0.39517144     0.1491524      0.00075866398  0.26238877    -0.11602579     0.035720008    6.5149885      6.5149885      6.5149885      0              0              0              0.7955761    
     23400   0.97549342     0.79902381    -4.1933413     -2.1232176      0.44614569     0.14357455     0.34905251     0.84581002    -0.19215948    -0.37506046    -0.03546097     6.5056045      6.5056045      6.5056045      0              0              0              0.79902381   
     23500   1.0222044      0.80266323    -4.2865731     -2.4157276      0.25189434     0.44474524     0.17256724     0.13837053     0.16320778     0.22695621    -0.097587738    6.495757       6.495757       6.495757       0              0              0              0.80266323   
     23600   0.93452077     0.80672182    -4.1897411     -1.6253321      0.85779225     1.1130946      0.34774069     1.1125414     -0.3417315      0.18444994     0.37793666     6.4848454      6.4848454      6.4848454      0              0              0              0.80672182   
     23700   1.0659855      0.81006236    -4.421657      -2.6890278      0.10431087    -0.35044148     0.74574498    -0.082370887    0.23168233    -0.042057032   -0.23302833     6.475919       6.475919       6.475919       0              0              0              0.81006236   
     23800   0.94781809     0.81342692    -4.2912215     -2.1042976      0.57110363     0.50323598     0.82449025     0.38558466     0.29655241    -0.13696366    -0.51506197     6.4669779      6.4669779      6.4669779      0              0              0              0.81342692   
     23900   0.97889113     0.81687019    -4.3865871     -2.6060675      0.23728193    -0.24256766     0.25009768     0.70431579     0.52397114    -0.045184377    0.10394753     6.4578786      6.4578786      6.4578786      0              0              0              0.81687019   
     24000   0.96213304     0.82041486    -4.400457      -2.790698       0.12960724     0.03659586     0.42729329    -0.075067415   -0.1465826      0.16212301    -0.016446202    6.4485646      6.4485646      6.4485646      0              0              0              0.82041486   
     24100   0.94159079     0.82365742    -4.4019793     -2.3134399      0.51157741     0.21233453     0.72270066     0.59969703     0.056359784   -0.54586184     0.061820063    6.4400913      6.4400913      6.4400913      0              0              0              0.82365742   
     24200   0.98057392     0.82678096    -4.4725508     -2.3495399      0.495696       0.27580508     0.55406447     0.65721846    -0.11198342    -0.26126005    -0.31474953     6.4319709      6.4319709      6.4319709      0              0              0              0.82678096   
     24300   0.91313568     0.82965251    -4.3695855     -1.6971738      0.98770638     0.76816744     1.3403131      0.85463864    -0.35082632     0.66745257    -0.27909702     6.4245417      6.4245417      6.4245417      0              0              0              0.82965251   
     24400   1.0039995      0.83190767    -4.4882031     -2.6281548      0.27345489     0.2425698      0.38365103     0.19414383     0.081846597   -0.014390854   -0.50048575     6.4187311      6.4187311      6.4187311      0              0              0              0.83190767   
     24500   1.0003447      0.83497896    -4.4538468     -2.2977352      0.50333834     0.3938571      0.25148855     0.86466936     0.15510071     0.56485167    -0.23759172     6.4108515      6.4108515      6.4108515      0              0              0              0.83497896   
     24600   0.97008108     0.83804954    -4.3718224     -1.9998299      0.70407322     0.58801916     0.72000946     0.80419103     0.4307804      0.061817124   -0.049068092    6.4030122      6.4030122      6.4030122      0              0              0              0.83804954   
     24700   1.001771       0.84074349    -4.389915      -1.451964       1.1027557      1.0489017      1.4303285      0.82903684     0.22804134     0.40298817     0.070614369    6.3961659      6.3961659      6.3961659      0              0              0              0.84074349   
     24800   1.095431       0.84173876    -4.4997172     -1.4128772      1.1110257      0.92345206     1.6683453      0.74127987     0.33231608    -0.18610824    -0.048909972    6.393644       6.393644       6.393644       0              0              0              0.84173876   
     24900   1.0717675      0.84161266    -4.4650091     -1.1455958      1.3158233      1.3396223      1.5170951      1.0907525      0.026568512   -0.029409965   -0.082118032    6.3939633      6.3939633      6.3939633      0              0              0              0.84161266   
     25000   1.0565935      0.84079171    -4.4784175     -2.3180208      0.44594901     0.41681528     0.65565611     0.26537563    -0.095195649    0.27674467     0.1315213      6.3960437      6.3960437      6.3960437      0              0              0              0.84079171   
     25100   1.0250746      0.84074343    -4.4852833     -1.7774714      0.90027419     0.52702199     0.97032045     1.2034801     -0.05772531    -0.1808995     -0.60243422     6.3961661      6.3961661      6.3961661      0              0              0              0.84074343   
     25200   0.95587135     0.84104593    -4.4484742     -1.477306       1.180928       1.3416241      0.88002444     1.3211355     -0.059766338    0.03952499    -0.085413938    6.3953992      6.3953992      6.3953992      0              0              0              0.84104593   
     25300   0.98113747     0.84138991    -4.5358325     -2.5950919      0.36439293     0.03001309     0.20713352     0.85603217    -0.65472845    -0.52751399     0.26664625     6.3945275      6.3945275      6.3945275      0              0              0              0.84138991   
     25400   0.93600473     0.84334977    -4.5084633     -1.9414891      0.89700759     0.77147629     0.85621992     1.0633266      0.13934098     0.096955521    0.31476548     6.3895703      6.3895703      6.3895703      0              0              0              0.84334977   
     25500   0.93945802     0.8456913     -4.5393543     -2.5904696      0.42034213     0.26208144    -0.050807406    1.0497523     -0.16065584     0.38593396    -0.062641739    6.3836677      6.3836677      6.3836677      0              0              0              0.8456913    
     25600   0.9472013      0.84868148    -4.5612641     -2.2960444      0.65697345     0.64495094     0.19074437     1.135225       0.26374436    -0.090645782   -0.25676259     6.3761616      6.3761616      6.3761616      0              0              0              0.84868148   
     25700   0.90452831     0.8505202     -4.4625242     -1.1523137      1.5156285      1.8534418      1.3950714      1.2983724      0.05975715     0.51792931     0.75440119     6.3715635      6.3715635      6.3715635      0              0              0              0.8505202    
     25800   1.0341666      0.85111009    -4.551991      -1.6894085      1.0206271      1.0221081      0.59518125     1.444592      -0.51253844     0.0077195858   0.14236349     6.3700912      6.3700912      6.3700912      0              0              0              0.85111009   
     25900   1.13298        0.85178105    -4.5790587     -3.0159911     -0.099042844   -0.048619674   -0.84666263     0.59815378    -0.044658081   -0.12083831    -0.05305961     6.3684181      6.3684181      6.3684181      0              0              0              0.85178105   
     26000   1.0869104      0.85320662    -4.4626327     -1.0247773      1.4082885      1.2214362      1.5229505      1.4804789      0.4464265      0.10934448    -0.26170994     6.3648693      6.3648693      6.3648693      0              0              0              0.85320662   
     26100   1.0748826      0.85349835    -4.4584209     -1.5020573      1.0491057      0.66412538     0.92642945     1.5567622      0.13402496     0.54581255    -0.44621278     6.364144       6.364144       6.364144       0              0              0              0.85349835   
     26200   1.1027864      0.85362148    -4.5595017     -1.5635231      1.0476805      0.83751767     1.340249       0.96527482     0.24470369     0.51494499     0.15162104     6.363838       6.363838       6.363838       0              0              0              0.85362148   
     26300   1.0505556      0.85353794    -4.5559159     -1.7813264      0.93628086     0.75302647     0.90553418     1.1502819     -0.087711257   -0.34639685     0.39996765     6.3640456      6.3640456      6.3640456      0              0              0              0.85353794   
     26400   0.93125711     0.85334654    -4.4367801     -1.4704208      1.2229682      1.1288663      1.2710971      1.2689414      0.1604946      0.059732065    0.04022332     6.3645214      6.3645214      6.3645214      0              0              0              0.85334654   
     26500   0.94141758     0.85270986    -4.4824691     -1.9333421      0.8868657      0.39241817     1.3243417      0.9438372     -0.35429488     0.051947313   -0.39566246     6.366105       6.366105       6.366105       0              0              0              0.85270986   
     26600   1.0177069      0.85318504    -4.6111318     -2.0773378      0.7871535      0.88978675     0.74564031     0.72603344    -0.063771588   -0.039653179    0.18263108     6.3649229      6.3649229      6.3649229      0              0              0              0.85318504   
     26700   0.97103664     0.85456905    -4.5538463     -2.0799522      0.79600925     0.71730273     0.66310002     1.007625      -0.4418174      0.25566033    -0.346403       6.361485       6.361485       6.361485       0              0              0              0.85456905   
     26800   0.92451961     0.8563582     -4.4868316     -1.9091995      0.93248576     1.4873467      0.52963819     0.78047236     0.28067736     0.56060012    -0.31037112     6.3570517      6.3570517      6.3570517      0              0              0              0.8563582    
     26900   0.91913498     0.85728165    -4.456845      -1.6371279      1.1284228      1.4354028      1.6272462      0.32261944     0.42252916    -0.062737313   -0.13578856     6.3547683      6.3547683      6.3547683      0              0              0              0.85728165   
     27000   0.99382913     0.85713291    -4.5108419     -1.0664943      1.5280791      1.6053568      2.1266452      0.85223533    -0.19262009     0.62380304    -0.24523337     6.3551358      6.3551358      6.3551358      0              0              0              0.85713291   
     27100   1.0766325      0.85599948    -4.5342023     -1.6020106      1.0313375      1.317188       0.80239488     0.97442967     0.35733577     0.15318858    -0.098418766    6.3579395      6.3579395      6.3579395      0              0              0              0.85599948   
     27200   1.1390939      0.85489068    -4.5342128     -1.1154009      1.3357389      1.3010433      1.3705432      1.3356302     -0.27512665     0.12041353    -0.059837632    6.3606871      6.3606871      6.3606871      0              0              0              0.85489068   
     27300   1.0998524      0.85229029    -4.4483133     -1.0962991      1.3252994      0.65528745     1.4636741      1.8569366      0.10335194     0.21394976    -0.15015278     6.3671495      6.3671495      6.3671495      0              0              0              0.85229029   
     27400   1.1317223      0.8494654     -4.5110916     -1.0667719      1.3554565      1.6195705      0.97976811     1.4670309     -0.57585949    -0.25281542     0.52146015     6.3741996      6.3741996      6.3741996      0              0              0              0.8494654    
     27500   1.0196714      0.84732919    -4.3985278     -1.1017538      1.3672152      0.94753359     1.6645153      1.4895968      0.026713756    0.47868911    -0.17868065     6.3795518      6.3795518      6.3795518      0              0              0              0.84732919   
     27600   1.0732899      0.8459756     -4.5230895     -2.6846078      0.181959       0.35071637    -0.26287521     0.45803583    -0.57947581    -0.20971883     0.086933198    6.3829525      6.3829525      6.3829525      0              0              0              0.8459756    
[...]
    136000   0.1083876      0.27192216    -3.9080413     -6.1721996     -0.59969386    -1.0646136     -0.36582901    -0.36863898    -0.040229408   -0.02401442    -0.019880123    23.072059      5.9216926      5.9216926      0              0              0              0.27192216   
    137000   0.1011804      0.26921649    -3.8679131     -6.2256172     -0.61398881    -1.1482432     -0.39843109    -0.29529219    -0.069696582    0.0011837926   0.0094699875   23.303937      5.9216926      5.9216926      0              0              0              0.26921649   
    138000   0.099338112    0.26653774    -3.8373626     -6.2067497     -0.61004412    -1.2251049     -0.39004654    -0.21498093    -0.062266749   -0.06247717    -0.010054629    23.538146      5.9216926      5.9216926      0              0              0              0.26653774   
    139000   0.17612317     0.26388564    -3.9733563     -5.7278876     -0.48396512    -0.76213312    -0.36227099    -0.32749125     0.028633457   -0.016222344   -0.022979369    23.774708      5.9216926      5.9216926      0              0              0              0.26388564   
    140000   0.1020093      0.26125994    -4.3399665     -4.430391      -0.057637113    0.14209339    -0.17921014    -0.13579459    -0.015721648    0.038921631    0.059518267    24.013648      5.9216926      5.9216926      0              0              0              0.26125994   
    141000   0.10314524     0.25866036    -4.4426142     -4.9071886     -0.14544204    -0.046417341   -0.20069527    -0.18921349    -0.062907336    0.0044160306  -0.033267752    24.254989      5.9216926      5.9216926      0              0              0              0.25866036   
    142000   0.088921809    0.25608664    -4.5007631     -4.377515      -0.0022041325   0.09084405    -0.048108116   -0.049348332   -0.042205623    0.0018668507  -0.0082654996   24.498756      5.9216926      5.9216926      0              0              0              0.25608664   
    143000   0.098994512    0.25353854    -4.4913342     -5.072927      -0.16810576    -0.15602231    -0.12591842    -0.22237654    -0.062923535   -0.0013330881  -0.010959111    24.744972      5.9216926      5.9216926      0              0              0              0.25353854   
    144000   0.11312119     0.25101579    -4.535883      -4.7043896     -0.0769797     -0.018832274   -0.10441504    -0.10769178     0.0027728477   0.068931163    0.061032515    24.993663      5.9216926      5.9216926      0              0              0              0.25101579   
    145000   0.096408962    0.24851814    -4.587032      -5.221877      -0.17593625    -0.073346803   -0.25106303    -0.20339892     0.019629282    0.038913372   -0.027623173    25.244854      5.9216926      5.9216926      0              0              0              0.24851814   
    146000   0.10331167     0.24604534    -4.6285046     -5.1376172     -0.14836652    -0.053633456   -0.25466905    -0.13679706     0.0063387749   0.03605999    -0.074263197    25.498569      5.9216926      5.9216926      0              0              0              0.24604534   
    147000   0.096432553    0.24359715    -4.6771485     -5.0537567     -0.11527324     0.080742745   -0.23449441    -0.19206806     0.019276687   -0.041797607   -0.073722607    25.754834      5.9216926      5.9216926      0              0              0              0.24359715   
    148000   0.11290302     0.24117332    -4.7444652     -4.9366186     -0.079074413    0.07694959    -0.11531979    -0.19885303    -0.021716289    0.049952089    0.013160358    26.013674      5.9216926      5.9216926      0              0              0              0.24117332   
    149000   0.1110932      0.2387736     -4.8162388     -5.0723358     -0.09158131     0.039550595   -0.091112012   -0.22318251    -0.013446955   -0.02115102     0.070126701    26.275116      5.9216926      5.9216926      0              0              0              0.2387736    
    150000   0.10565552     0.23639777    -4.8278321     -5.0357846     -0.078579334    0.039622383   -0.18806184    -0.087298548    0.025737835    0.00640661     0.060690981    26.539185      5.9216926      5.9216926      0              0              0              0.23639777   
    151000   0.11041662     0.23404557    -4.8311134     -4.9568491     -0.061816218    0.081289693   -0.13523014    -0.13150821     0.027288781    0.044929621    0.020140945    26.805908      5.9216926      5.9216926      0              0              0              0.23404557   
    152000   0.096923629    0.23171678    -4.841445      -5.2305777     -0.11244399    -0.038231385   -0.18597655    -0.11312404     0.015875289    0.050840151    0.013305826    27.075312      5.9216926      5.9216926      0              0              0              0.23171678   
    153000   0.10506473     0.22941116    -4.841538      -5.3320849     -0.13500972    -0.043407884   -0.19253088    -0.1690904      0.0091656635  -0.01802805     0.040911027    27.347424      5.9216926      5.9216926      0              0              0              0.22941116   
    154000   0.093280895    0.22712848    -4.8463647     -5.0010735     -0.060690903    0.049292121   -0.074208377   -0.15715645     0.014692038   -0.027553176    0.091789382    27.62227       5.9216926      5.9216926      0              0              0              0.22712848   
    155000   0.090460343    0.22486851    -4.8676012     -5.0516054     -0.065215192    0.039361982   -0.098785944   -0.13622161     0.020402959    0.026304696    0.055443279    27.899878      5.9216926      5.9216926      0              0              0              0.22486851   
    156000   0.095594648    0.22263103    -4.8477234     -5.0338605     -0.066548899   -0.023304569   -0.018297706   -0.15804442    -0.021760183   -0.020988433   -0.011067042    28.180277      5.9216926      5.9216926      0              0              0              0.22263103   
    157000   0.11036055     0.22041582    -4.8813022     -5.0404243     -0.06488947     0.03146899    -0.11058359    -0.11555381    -0.044341589   -0.019779816    0.11041857     28.463493      5.9216926      5.9216926      0              0              0              0.22041582   
    158000   0.099496677    0.21822264    -4.8876892     -4.9119306     -0.034268928    0.040871      -0.0095217196  -0.13415606     0.026805093   -0.01634719     0.10213151     28.749556      5.9216926      5.9216926      0              0              0              0.21822264   
    159000   0.10224496     0.21605129    -4.8636668     -5.0073478     -0.058192737    0.015687563   -0.075047095   -0.11521868     0.00030159653 -0.037418309    0.027388078    29.038494      5.9216926      5.9216926      0              0              0              0.21605129   
    160000   0.10064367     0.21390155    -4.8589344     -5.4458201     -0.14333278    -0.065707252   -0.12924775    -0.23504333     0.016969352    0.0019035353   0.039462724    29.330336      5.9216926      5.9216926      0              0              0              0.21390155   
    161000   0.10143231     0.21177319    -4.8801355     -5.4763478     -0.14392877    -0.040858926   -0.12711483    -0.26381254    -0.014846587    0.0062111529   0.052106902    29.62511       5.9216926      5.9216926      0              0              0              0.21177319   
    162000   0.10459263     0.20966601    -4.8609376     -5.0801676     -0.071540823   -0.024269162    0.016262459   -0.20661576     0.051858293    0.028643402    0.14530855     29.922848      5.9216926      5.9216926      0              0              0              0.20966601   
    163000   0.094606351    0.2075798     -4.8666254     -5.1161417     -0.073731641   -0.01963897    -0.076784378   -0.12477158     0.0018451951  -0.046442331    0.015859579    30.223577      5.9216926      5.9216926      0              0              0              0.2075798    
    164000   0.10432913     0.20551435    -4.8811151     -5.2965527     -0.10670844    -0.011193748   -0.12277693    -0.18615466    -0.018912267    0.017073785    0.023618164    30.527329      5.9216926      5.9216926      0              0              0              0.20551435   
    165000   0.11083873     0.20346944    -4.8577312     -5.3944088     -0.12986982    -0.063088581   -0.13506708    -0.19145379    -0.022572756    0.011735322    0.07197088     30.834134      5.9216926      5.9216926      0              0              0              0.20346944   
    166000   0.097776749    0.20144489    -4.8712265     -5.1299189     -0.074099522   -0.00069149249 -0.07758535    -0.14402172     0.01385251     0.0075477096   0.035524711    31.144022      5.9216926      5.9216926      0              0              0              0.20144489   
    167000   0.098428156    0.19944048    -4.8700574     -5.1642411     -0.079973403   -0.014597015   -0.085363417   -0.13995978     0.0067031015   0.019309936    0.047950448    31.457025      5.9216926      5.9216926      0              0              0              0.19944048   
    168000   0.09559655     0.19745601    -4.8744199     -5.2414199     -0.09148996    -0.043782914   -0.089556646   -0.14113032    -0.009998232    0.008462815    0.07255683     31.773173      5.9216926      5.9216926      0              0              0              0.19745601   
    169000   0.10732932     0.19549129    -4.8611629     -4.9691998     -0.047668938    0.056046934   -0.050690107   -0.14836364     0.054567264    0.019923202    0.027862533    32.092499      5.9216926      5.9216926      0              0              0              0.19549129   
    170000   0.095042614    0.19354612    -4.856257      -4.9599797     -0.043208964    0.0090421285  -0.036752151   -0.10191687     0.059313881   -0.05513788     0.044769072    32.415034      5.9216926      5.9216926      0              0              0              0.19354612   
    171000   0.089683832    0.19162031    -4.8736641     -4.9496771     -0.036558732    0.042048399   -0.070494079   -0.081230518   -0.0024327492  -0.014040384    0.046465587    32.740811      5.9216926      5.9216926      0              0              0              0.19162031   
    172000   0.10652927     0.18971365    -4.8740544     -5.1973118     -0.083172594   -0.01028852    -0.077907858   -0.16132141     0.036440076    0.033109785    0.014965282    33.069861      5.9216926      5.9216926      0              0              0              0.18971365   
    173000   0.095655476    0.18782597    -4.8653696     -5.0988025     -0.064236256   -0.014114351   -0.038139517   -0.1404549      0.0018264006   0.0053865121   0.049834806    33.402219      5.9216926      5.9216926      0              0              0              0.18782597   
    174000   0.093656507    0.18595707    -4.8887935     -5.2186807     -0.079398506    0.0014972144  -0.086303877   -0.15338886    -0.0055244159   0.034456408    0.049324551    33.737917      5.9216926      5.9216926      0              0              0              0.18595707   
    175000   0.097493032    0.18410677    -4.8654981     -5.1173608     -0.066507919    0.05716145    -0.08656288    -0.17012233    -0.0017970171  -0.00081490116  0.044747767    34.076988      5.9216926      5.9216926      0              0              0              0.18410677   
    176000   0.10491464     0.18227487    -4.8817539     -5.1442889     -0.069450057   -0.034289456   -0.024954386   -0.14910633     0.013055882    0.03276652     0.07033524     34.419468      5.9216926      5.9216926      0              0              0              0.18227487   
    177000   0.093225145    0.18046121    -4.879201      -5.2770932     -0.088102927   -0.031078754   -0.098510263   -0.13471977    -0.017262012   -0.018058598    0.020729119    34.765389      5.9216926      5.9216926      0              0              0              0.18046121   
    178000   0.10235615     0.17866559    -4.8685109     -5.1290143     -0.067124655    0.0061610862  -0.070183389   -0.13735166     0.0066471228   0.0083537249   0.047019654    35.114787      5.9216926      5.9216926      0              0              0              0.17866559   
    179000   0.088085733    0.17688784    -4.8817928     -5.0082747     -0.041480176    0.085262532   -0.052821216   -0.15688184     0.011631164   -0.061348039    0.0015846153   35.467697      5.9216926      5.9216926      0              0              0              0.17688784   
    180000   0.10587306     0.17512777    -4.8833437     -4.9106054     -0.029497441    0.015775778   -0.024211124   -0.080056978    0.016021893   -0.014793693    0.038145438    35.824153      5.9216926      5.9216926      0              0              0              0.17512777   
    181000   0.10154049     0.17338522    -4.8614643     -4.9742549     -0.041666009    0.024873395   -0.07337013    -0.076501293   -0.053533503   -0.026581771    0.011470809    36.184192      5.9216926      5.9216926      0              0              0              0.17338522   
    182000   0.10502054     0.17166001    -4.8973727     -5.0199347     -0.043586855   -0.0053293447  -0.035336342   -0.090094878   -0.028973626   -0.013556542    0.03855249     36.547849      5.9216926      5.9216926      0              0              0              0.17166001   
    183000   0.09684025     0.16995197    -4.8703637     -4.9275093     -0.031159865    0.054557513   -0.042414752   -0.10562236     0.023947931   -0.016211811    0.027641474    36.915161      5.9216926      5.9216926      0              0              0              0.16995197   
    184000   0.10373453     0.16826092    -4.8644019     -4.9419861     -0.035550165    0.024469867   -0.045474535   -0.085645828    0.0096175252   0.023216543    0.05451638     37.286164      5.9216926      5.9216926      0              0              0              0.16826092   
    185000   0.097849847    0.16658669    -4.874656      -5.3279963     -0.090771748   -0.008031746   -0.14111735    -0.12316615    -0.0010657797  -0.025968714    0.074005842    37.660896      5.9216926      5.9216926      0              0              0              0.16658669   
    186000   0.094226237    0.16492913    -4.8865484     -5.2391329     -0.073950797   -0.02827273    -0.07802633    -0.11555333    -0.0079044734  -0.0037516473   0.038596331    38.039395      5.9216926      5.9216926      0              0              0              0.16492913   
    187000   0.10943101     0.16328805    -4.8824348     -5.0926358     -0.055447692    0.037816339   -0.060976145   -0.14318327    -0.016566633    0.014648893    0.040235531    38.421697      5.9216926      5.9216926      0              0              0              0.16328805   
    188000   0.097510368    0.16166331    -4.8820534     -4.9429736     -0.030341921    0.05079521    -0.062999659   -0.078821315    0.016960546    0.053301885    0.087092913    38.807842      5.9216926      5.9216926      0              0              0              0.16166331   
    189000   0.096477042    0.16005473    -4.884         -4.8348562     -0.013800821    0.048316384   -0.004710824   -0.085008025   -0.0083180576  -0.035191723    0.04370581     39.197867      5.9216926      5.9216926      0              0              0              0.16005473   
    190000   0.10041778     0.15846216    -4.8664123     -4.9179426     -0.029013535   -0.0067425694  -0.022706074   -0.057591961   -0.029208204   -0.02103397     0.090687246    39.591812      5.9216926      5.9216926      0              0              0              0.15846216   
    191000   0.10053176     0.15688544    -4.8944933     -5.2258988     -0.068665778   -0.030738909   -0.10162652    -0.073631901    0.040514683    0.027812824    0.013023894    39.989716      5.9216926      5.9216926      0              0              0              0.15688544   
    192000   0.10997482     0.1553244     -4.8737012     -4.7601289     -0.0071399963   0.10353046    -0.013038354   -0.11191209    -0.027624066   -0.025377748    0.027512091    40.39162       5.9216926      5.9216926      0              0              0              0.1553244    
    193000   0.096545506    0.1537789     -4.8700178     -5.1499136     -0.059273376    0.020873083   -0.084571965   -0.11412125    -0.0020832889   0.0070620859   0.097477498    40.797562      5.9216926      5.9216926      0              0              0              0.1537789    
    194000   0.092104359    0.15224877    -4.855898      -5.4808945     -0.10553086    -0.10448371    -0.082742269   -0.12936659     0.0030233789   0.030163313    0.040075268    41.207584      5.9216926      5.9216926      0              0              0              0.15224877   
    195000   0.10293129     0.15073387    -4.8608198     -5.0823654     -0.051409912   -0.016926406   -0.07531771    -0.06198562    -0.019610864   -0.0099036073   0.047467939    41.621728      5.9216926      5.9216926      0              0              0              0.15073387   
    196000   0.097057228    0.14923404    -4.8765955     -4.963005      -0.031375439    0.036359952   -0.051790947   -0.078695322   -0.017423333    0.015244955    0.055200719    42.040033      5.9216926      5.9216926      0              0              0              0.14923404   
    197000   0.10422052     0.14774914    -4.8715691     -4.9972991     -0.037780691    0.0033903879  -0.039223689   -0.077508772    0.010210125    0.016368689    0.026407949    42.462542      5.9216926      5.9216926      0              0              0              0.14774914   
    198000   0.10401754     0.14627901    -4.8746986     -5.152556      -0.057594506    0.026435675   -0.095332355   -0.10388684    -3.2509864e-05 -0.016433035    0.013681927    42.889298      5.9216926      5.9216926      0              0              0              0.14627901   
    199000   0.10497132     0.14482351    -4.8876361     -5.3332961     -0.079301364   -0.027184599   -0.068987752   -0.14173174    -0.014112671   -0.039489455    0.046000419    43.320342      5.9216926      5.9216926      0              0              0              0.14482351   
    200000   0.101491       0.14338249    -4.8714835     -5.0816294     -0.047136494    0.037819641   -0.066103428   -0.11312569    -0.011639597    0.017700586    0.026669326    43.755719      5.9216926      5.9216926      0              0              0              0.14338249   
Loop time of 23.0735 on 12 procs for 200000 steps with 200 atoms

Performance: 1497823.312 tau/day, 8667.959 timesteps/s
98.7% CPU use with 12 MPI tasks x 1 OpenMP threads

MPI task timing breakdown:
Section |  min time  |  avg time  |  max time  |%varavg| %total
---------------------------------------------------------------
Pair    | 0.63881    | 0.99996    | 1.41       |  22.7 |  4.33
Bond    | 0.044648   | 0.05915    | 0.080943   |   4.3 |  0.26
Neigh   | 0.032953   | 0.03318    | 0.033591   |   0.1 |  0.14
Comm    | 5.138      | 5.5229     | 5.929      |   9.9 | 23.94
Output  | 0.021866   | 0.022015   | 0.023238   |   0.2 |  0.10
Modify  | 15.785     | 15.875     | 15.936     |   1.1 | 68.80
Other   |            | 0.5612     |            |       |  2.43

Nlocal:        16.6667 ave          24 max          10 min
Histogram: 1 2 2 1 1 0 1 1 2 1
Nghost:        476.917 ave         515 max         440 min
Histogram: 2 0 1 1 2 0 4 1 0 1
Neighs:        1007.58 ave        1440 max         694 min
Histogram: 3 1 2 1 0 1 1 0 1 2

Total # of neighbors = 12091
Ave neighs/atom = 60.455
Ave special neighs/atom = 9.72
Neighbor list builds = 445
Dangerous builds = 0
System init for write_data ...
Generated 0 of 1 mixed pair_coeff terms from geometric mixing rule
WARNING: Not all mixed pair coeffs generated from mixing. Use write_data with 'pair ij' option to store all pair coeffs. (src/write_data.cpp:309)
Total wall time: 0:00:23
