ITEM: TIMESTEP
0
ITEM: NUMBER OF ATOMS
200
ITEM: BOX BOUNDS pp pp pp
9.7026407132847652e+01 1.0297359286715235e+02
9.7026407132847652e+01 1.0297359286715235e+02
9.7026407132847652e+01 1.0297359286715235e+02
ITEM: ATOMS id mol type x y z
1 1 1 102.503 99.75 101.717
2 1 1 101.596 100.559 101.952
3 2 1 101.531 98.8576 98.0805
4 2 1 100.76 99.6875 97.6288
5 3 1 99.7401 99.8748 98.0201
6 3 1 99.5527 98.7521 97.8909
7 4 1 98.8797 99.882 97.3049
8 4 1 98.1941 100.804 97.6869
9 5 1 99.2639 99.2214 102.194
10 5 1 98.6489 100.232 101.863
11 6 1 100.205 98.1003 101.717
12 6 1 98.9634 98.2273 101.841
13 7 1 98.8096 98.6827 97.1076
14 7 1 98.9977 97.6963 97.7843
15 8 1 97.3135 101.908 101.865
16 8 1 102.775 102.165 100.86
17 9 1 101.105 100.086 101.027
18 9 1 101.288 101.238 101.204
19 10 1 102.66 101.214 100.286
20 10 1 102.261 101.188 99.1862
21 11 1 102.649 101.981 98.5829
22 11 1 102.85 97.1945 98.3597
23 12 1 97.8474 98.8108 100.522
24 12 1 98.4318 99.1454 101.501
25 13 1 97.424 101.49 102.862
26 13 1 98.2414 102.225 102.25
27 14 1 98.6142 101.862 101.319
28 14 1 99.3848 102.632 100.758
29 15 1 97.4044 101.609 99.4744
30 15 1 98.1838 101.037 98.8439
31 16 1 100.417 102.513 102.502
32 16 1 99.5344 102.273 101.737
33 17 1 102.181 98.7945 101.322
34 17 1 102.951 97.9279 101.637
35 18 1 102.799 98.3699 100.595
36 18 1 102.191 98.9995 99.7798
37 19 1 100.593 101.93 101.68
38 19 1 100.266 97.0687 101.324
39 20 1 102.91 99.4496 99.0459
40 20 1 102.326 98.501 98.7598
41 21 1 100.025 97.8286 98.128
42 21 1 99.2003 97.2633 98.7294
43 22 1 98.4488 102.114 99.0952
44 22 1 98.8897 101.409 98.1913
45 23 1 97.4995 102.537 98.9923
46 23 1 97.9574 101.841 98.1417
47 24 1 102.355 98.7474 102.378
48 24 1 101.513 99.4878 101.91
49 25 1 100.664 101.485 100.16
50 25 1 100.539 100.389 99.8139
51 26 1 102.84 97.4068 99.4895
52 26 1 101.903 102.863 100.159
53 27 1 102.479 97.2749 97.2825
54 27 1 102.68 102.243 102.681
55 28 1 97.9846 97.9072 101.178
56 28 1 98.8698 98.5703 100.72
57 29 1 102.249 101.64 97.5294
58 29 1 97.1759 102.406 97.6721
59 30 1 99.8035 101.852 97.6345
60 30 1 99.1734 102.437 102.718
61 31 1 97.2166 100.622 101.065
62 31 1 102.945 99.4941 100.773
63 32 1 99.2507 100.859 97.3509
64 32 1 100.382 100.957 97.2237
65 33 1 99.4712 97.7534 101.025
66 33 1 99.7373 98.9228 101.247
67 34 1 101.527 99.2438 102.931
68 34 1 101.858 98.1488 97.295
69 35 1 97.918 100.508 102.657
70 35 1 98.2479 99.4028 102.496
71 36 1 98.0773 102.787 97.2231
72 36 1 99.0787 102.555 97.8831
73 37 1 99.716 98.2947 102.635
74 37 1 98.7465 97.5748 102.667
75 38 1 99.8549 101.529 102.427
76 38 1 99.5748 100.842 101.491
77 39 1 99.8503 100.974 98.2256
78 39 1 100.306 101.243 99.2353
79 40 1 101.087 97.4558 100.738
80 40 1 101.229 98.2505 101.683
81 41 1 99.6856 97.2983 102.147
82 41 1 100.734 97.7213 102.603
83 42 1 98.4969 102.319 100.284
84 42 1 97.7304 101.578 100.781
85 43 1 100.398 98.2353 100.711
86 43 1 100.877 99.0905 100.188
87 44 1 100.824 99.1109 101.223
88 44 1 101.819 99.4856 100.643
89 45 1 99.8866 99.4203 97.0651
90 45 1 100.804 100.005 102.533
91 46 1 101.503 100.789 100.18
92 46 1 102.105 100.414 101.064
93 47 1 98.3074 97.2034 99.438
94 47 1 99.3221 97.8444 99.6928
95 48 1 97.6689 97.9419 98.7636
96 48 1 97.9889 97.8694 97.6435
97 49 1 97.6303 99.8982 101.763
98 49 1 98.0995 99.8414 100.709
99 50 1 97.1539 99.4662 102.564
100 50 1 102.956 100.638 102.167
101 51 1 97.4112 98.99 98.2551
102 51 1 97.8479 100.06 98.5103
103 52 1 97.1639 100.528 99.1785
104 52 1 102.822 99.9549 98.1287
105 53 1 99.2729 102.725 99.6521
106 53 1 98.6379 97.4306 100.418
107 54 1 99.8791 101.697 100.906
108 54 1 99.3993 100.739 100.334
109 55 1 102.007 97.767 101.155
110 55 1 102.025 97.6254 102.288
111 56 1 102.834 100.588 97.2538
112 56 1 102.08 100.846 98.1368
113 57 1 102.529 99.0377 97.472
114 57 1 97.7512 98.8365 97.2878
115 58 1 102.726 102.817 101.761
116 58 1 97.8035 97.2785 102.173
117 59 1 101.077 102.802 98.5833
118 59 1 101.9 97.6796 98.269
119 60 1 97.2108 98.5369 99.5269
120 60 1 97.5747 99.6097 99.8449
121 61 1 100.562 100.879 102.009
122 61 1 100.336 100.756 100.816
123 62 1 101.883 102.657 101.167
124 62 1 101.768 101.778 100.428
125 63 1 100.913 102.275 97.5478
126 63 1 101.575 101.759 98.4284
127 64 1 102.132 100.128 98.9042
128 64 1 101.416 99.823 99.6914
129 65 1 98.4967 99.2192 98.0535
130 65 1 98.854 100.277 98.3757
131 66 1 100.673 98.1433 99.6956
132 66 1 101.786 97.8209 99.4585
133 67 1 99.1886 99.2307 98.9706
134 67 1 100.345 99.3685 99.3431
135 68 1 97.6447 97.8 100.113
136 68 1 102.768 97.2542 100.699
137 69 1 98.4346 101.339 99.8597
138 69 1 98.5246 100.804 100.914
139 70 1 102.149 100.058 102.669
140 70 1 102.212 101.268 102.525
141 71 1 100.91 100.66 98.064
142 71 1 100.547 101.766 98.3773
143 72 1 100.143 102.742 98.141
144 72 1 101.004 97.4247 97.6505
145 73 1 99.904 98.4455 99.0153
146 73 1 100.178 97.2905 99.0981
147 74 1 98.0691 99.1046 99.0535
148 74 1 98.4481 100.167 99.4401
149 75 1 99.111 99.8486 100.974
150 75 1 98.6777 99.3068 100.01
151 76 1 99.5102 99.9533 99.6594
152 76 1 100.252 100.264 98.8213
153 77 1 101.163 99.7719 98.6428
154 77 1 101.316 98.7872 99.2188
155 78 1 102.017 102.784 99.03
156 78 1 101.017 97.0877 99.6508
157 79 1 101.418 101.981 99.4536
158 79 1 100.29 102.302 99.5663
159 80 1 101.564 102.724 102.8
160 80 1 101.031 101.647 102.647
161 81 2 99.6758 100.348 102.467
162 82 2 97.5057 102.592 100.141
163 83 2 100.854 102.372 100.649
164 84 2 98.5429 101.784 97.25
165 85 2 101.61 98.3864 100.408
166 86 2 98.1187 97.0514 98.312
167 87 2 97.3671 98.8863 101.654
168 88 2 98.6964 97.1391 101.535
169 89 2 98.4218 98.3667 99.6684
170 90 2 99.4763 101.733 99.9174
171 91 2 102.309 101.384 101.429
172 92 2 97.7514 102.709 101.242
173 93 2 99.9287 97.2557 97.2234
174 94 2 100.023 99.6478 100.519
175 95 2 100.605 98.5312 97.3512
176 96 2 102.453 100.164 99.9274
177 97 2 97.0827 98.0336 102.742
178 98 2 100.104 99.8438 101.596
179 99 2 97.2088 101.08 98.1765
180 100 2 102.949 98.1275 97.878
181 101 2 101.727 102.053 101.97
182 102 2 98.7688 98.2273 98.6846
183 103 2 102.584 102.236 99.6983
184 104 2 101.45 100.685 97.1738
185 105 2 101.933 102.624 97.8664
186 106 2 100.13 97.2741 100.265
187 107 2 99.2894 101.004 99.1566
188 108 2 97.989 98.3388 102.286
189 109 2 97.6611 100.729 100.077
190 110 2 101.785 99.8616 97.7965
191 111 2 97.8379 99.843 97.4981
192 112 2 101.185 97.1344 101.758
193 113 2 98.8447 101.2 102.346
194 114 2 101.258 100.856 99.0384
195 115 2 99.5072 102.015 98.8403
196 116 2 100.505 98.9937 98.3617
197 117 2 97.9465 101.092 101.773
198 118 2 100.905 97.9317 98.6429
199 119 2 100.464 98.9882 102.26
200 120 2 99.7023 98.7836 100.037
ITEM: TIMESTEP
1000
ITEM: NUMBER OF ATOMS
200
ITEM: BOX BOUNDS pp pp pp
9.6996522027692478e+01 1.0300347797230752e+02
9.7026407132847652e+01 1.0297359286715235e+02
9.7026407132847652e+01 1.0297359286715235e+02
ITEM: ATOMS id mol type x y z
1 1 1 102.583 99.7536 101.72
2 1 1 101.688 100.526 101.993
3 2 1 101.456 98.8212 98.0342
4 2 1 100.786 99.7634 97.6081
5 3 1 99.7987 100.02 97.8889
6 3 1 99.5088 98.857 97.9387
7 4 1 98.8931 99.8411 97.2467
8 4 1 98.17 100.803 97.6929
9 5 1 99.2773 99.2163 102.236
10 5 1 98.7394 100.182 101.823
11 6 1 100.207 98.0763 101.715
12 6 1 98.9886 98.201 101.835
13 7 1 98.8292 98.6349 97.0913
14 7 1 98.9017 97.6815 97.7622
15 8 1 97.408 101.843 101.861
16 8 1 102.79 102.118 100.886
17 9 1 101.131 100.1 101.202
18 9 1 101.357 101.253 101.251
19 10 1 102.672 101.229 100.331
20 10 1 102.168 101.265 99.2483
21 11 1 102.654 102.055 98.6486
22 11 1 102.871 97.2984 98.5232
23 12 1 97.783 98.7961 100.448
24 12 1 98.422 99.1113 101.482
25 13 1 97.603 101.585 102.967
26 13 1 98.3174 102.235 102.21
27 14 1 98.6587 101.837 101.29
28 14 1 99.4382 102.609 100.769
29 15 1 97.2953 101.597 99.4497
30 15 1 98.1348 101.06 98.8151
31 16 1 100.361 102.515 102.593
32 16 1 99.5446 102.22 101.796
33 17 1 102.191 98.7755 101.256
34 17 1 102.99 97.9344 101.646
35 18 1 102.757 98.2679 100.444
36 18 1 102.198 99.0138 99.7319
37 19 1 100.716 101.982 101.698
38 19 1 100.249 97.047 101.344
39 20 1 102.851 99.5628 99.0388
40 20 1 102.374 98.5162 98.7577
41 21 1 99.8676 97.8683 98.1758
42 21 1 99.0983 97.2014 98.716
43 22 1 98.4777 102.128 98.9922
44 22 1 98.9633 101.345 98.1981
45 23 1 97.5002 102.495 98.9306
46 23 1 97.9827 101.849 98.0635
47 24 1 102.398 98.7187 102.289
48 24 1 101.564 99.4416 101.901
49 25 1 100.656 101.537 100.132
50 25 1 100.475 100.39 99.8495
51 26 1 102.811 97.4423 99.6234
52 26 1 101.859 102.962 100.246
53 27 1 102.437 97.2368 97.2926
54 27 1 102.769 102.227 102.668
55 28 1 98.0054 97.8866 101.17
56 28 1 98.8639 98.5268 100.652
57 29 1 102.341 101.748 97.5795
58 29 1 97.1547 102.547 97.7814
59 30 1 99.819 101.906 97.5938
60 30 1 99.1807 102.533 102.73
61 31 1 97.203 100.549 101.026
62 31 1 102.945 99.424 100.73
63 32 1 99.296 100.79 97.3572
64 32 1 100.462 100.871 97.2101
65 33 1 99.457 97.7179 101.02
66 33 1 99.7191 98.9018 101.249
67 34 1 101.471 99.1984 102.949
68 34 1 101.834 98.0932 97.2432
69 35 1 97.9808 100.494 102.648
70 35 1 98.2864 99.3485 102.499
71 36 1 98.0397 102.752 97.1445
72 36 1 99.0235 102.609 97.8541
73 37 1 99.76 98.3086 102.694
74 37 1 98.7484 97.6183 102.647
75 38 1 99.8682 101.501 102.544
76 38 1 99.5593 100.866 101.501
77 39 1 99.9856 101.033 98.1594
78 39 1 100.147 101.247 99.2969
79 40 1 101.072 97.4629 100.864
80 40 1 101.305 98.1631 101.865
81 41 1 99.6552 97.3218 102.191
82 41 1 100.708 97.7762 102.636
83 42 1 98.4892 102.364 100.37
84 42 1 97.7173 101.563 100.798
85 43 1 100.391 98.2159 100.681
86 43 1 100.864 99.0892 100.125
87 44 1 100.908 98.9773 101.201
88 44 1 101.797 99.5204 100.601
89 45 1 99.9456 99.3901 97.0619
90 45 1 100.828 99.9714 102.517
91 46 1 101.473 100.757 100.185
92 46 1 102.157 100.449 101.051
93 47 1 98.2898 97.1927 99.4137
94 47 1 99.2788 97.8539 99.5881
95 48 1 97.6939 98.0363 98.6283
96 48 1 97.9127 97.7663 97.4471
97 49 1 97.6954 99.9511 101.759
98 49 1 98.0759 99.8339 100.702
99 50 1 97.1772 99.4926 102.56
100 50 1 103.002 100.641 102.116
101 51 1 97.2781 99.0247 98.2051
102 51 1 97.7778 100.108 98.5184
103 52 1 97.0274 100.576 99.1752
104 52 1 102.849 100.013 98.0551
105 53 1 99.2419 102.707 99.6259
106 53 1 98.6706 97.4649 100.373
107 54 1 99.9588 101.727 100.94
108 54 1 99.5375 100.778 100.397
109 55 1 102.028 97.7158 101.179
110 55 1 102.03 97.4837 102.29
111 56 1 103.045 100.654 97.2217
112 56 1 102.142 100.836 98.013
113 57 1 102.504 99.0503 97.4084
114 57 1 97.7107 98.7743 97.2148
115 58 1 102.774 102.799 101.733
116 58 1 97.8135 97.2811 102.16
117 59 1 101.062 102.825 98.5997
118 59 1 101.87 97.6934 98.2611
119 60 1 97.1842 98.5457 99.4982
120 60 1 97.5452 99.614 99.7996
121 61 1 100.581 100.903 102.003
122 61 1 100.464 100.758 100.845
123 62 1 101.918 102.578 101.216
124 62 1 101.714 101.781 100.414
125 63 1 100.914 102.241 97.6116
126 63 1 101.629 101.688 98.3857
127 64 1 102.061 100.263 98.8747
128 64 1 101.379 99.8404 99.6768
129 65 1 98.4542 99.164 97.9566
130 65 1 98.8453 100.245 98.3528
131 66 1 100.673 98.0927 99.7273
132 66 1 101.834 97.918 99.4465
133 67 1 99.1489 99.2444 98.9869
134 67 1 100.277 99.4275 99.3688
135 68 1 97.6747 97.7741 100.133
136 68 1 102.838 97.1905 100.723
137 69 1 98.3209 101.475 99.8658
138 69 1 98.5727 100.815 100.854
139 70 1 102.249 99.971 102.715
140 70 1 102.276 101.199 102.611
141 71 1 101.049 100.801 98.1058
142 71 1 100.639 101.851 98.5472
143 72 1 100.083 102.758 98.1634
144 72 1 101.018 97.4425 97.6614
145 73 1 99.9377 98.4976 99.0382
146 73 1 100.115 97.3255 99.0698
147 74 1 98.0353 99.1254 98.9334
148 74 1 98.4322 100.143 99.4045
149 75 1 99.1316 99.7603 100.896
150 75 1 98.5863 99.2819 99.9394
151 76 1 99.4603 99.9223 99.7594
152 76 1 100.155 100.264 98.8282
153 77 1 101.077 99.8684 98.6276
154 77 1 101.292 98.8217 99.1402
155 78 1 102.028 102.867 99.0725
156 78 1 101.027 97.0618 99.6564
157 79 1 101.409 102.05 99.4267
158 79 1 100.238 102.297 99.4818
159 80 1 101.55 102.681 102.882
160 80 1 101.074 101.637 102.668
161 81 2 99.7018 100.285 102.461
162 82 2 97.4975 102.558 100.111
163 83 2 100.883 102.405 100.685
164 84 2 98.6834 101.776 97.2757
165 85 2 101.573 98.4057 100.425
166 86 2 98.0458 97.0671 98.2503
167 87 2 97.3798 98.8664 101.577
168 88 2 98.7149 97.0779 101.538
169 89 2 98.3414 98.3421 99.5822
170 90 2 99.4171 101.737 100.008
171 91 2 102.414 101.336 101.505
172 92 2 97.7595 102.669 101.23
173 93 2 99.9258 97.306 97.2752
174 94 2 100.132 99.623 100.577
175 95 2 100.585 98.4806 97.4602
176 96 2 102.409 100.195 99.9699
177 97 2 96.9971 97.9448 102.703
178 98 2 100.075 99.8592 101.604
179 99 2 97.1432 101.122 98.148
180 100 2 102.894 98.1277 97.8302
181 101 2 101.821 102.06 102.054
182 102 2 98.8174 98.2692 98.6607
183 103 2 102.545 102.236 99.7618
184 104 2 101.487 100.61 97.141
185 105 2 101.913 102.617 97.9384
186 106 2 100.141 97.2762 100.236
187 107 2 99.1433 100.938 99.2668
188 108 2 97.9401 98.3151 102.287
189 109 2 97.6311 100.71 100.099
190 110 2 101.79 99.8575 97.8751
191 111 2 97.8335 99.8248 97.4735
192 112 2 101.169 97.0323 101.815
193 113 2 98.862 101.184 102.357
194 114 2 101.122 100.958 99.1211
195 115 2 99.488 101.989 98.7611
196 116 2 100.438 99.091 98.3594
197 117 2 98.0231 101.024 101.71
198 118 2 100.894 98.006 98.6012
199 119 2 100.464 98.9757 102.165
200 120 2 99.6912 98.7981 100.051
ITEM: TIMESTEP
2000
ITEM: NUMBER OF ATOMS
200
ITEM: BOX BOUNDS pp pp pp
9.6966336572237168e+01 1.0303366342776283e+02
9.7026407132847652e+01 1.0297359286715235e+02
9.7026407132847652e+01 1.0297359286715235e+02
ITEM: ATOMS id mol type x y z
1 1 1 102.593 99.6925 101.721
2 1 1 101.756 100.559 102.009
3 2 1 101.54 98.8845 98.0647
4 2 1 100.819 99.7908 97.6176
5 3 1 99.7855 99.9553 97.9175
6 3 1 99.5195 98.7436 97.8506
7 4 1 98.8977 99.8237 97.3222
8 4 1 98.1627 100.767 97.738
9 5 1 99.2883 99.3157 102.142
10 5 1 98.65 100.252 101.87
11 6 1 100.235 98.0678 101.761
12 6 1 99.0456 98.2684 101.935
13 7 1 98.7792 98.6955 97.0726
14 7 1 98.9473 97.7286 97.7129
15 8 1 97.2398 102.162 101.691
16 8 1 102.69 102.061 100.748
17 9 1 101.157 100.168 101.23
18 9 1 101.446 101.332 101.208
19 10 1 102.651 101.088 100.311
20 10 1 102.295 101.266 99.1477
21 11 1 102.704 102.131 98.5522
22 11 1 102.955 97.3796 98.5799
23 12 1 97.7236 98.7858 100.469
24 12 1 98.37 99.1054 101.496
25 13 1 97.4194 101.464 102.796
26 13 1 98.145 102.196 102.147
27 14 1 98.6383 101.864 101.259
28 14 1 99.388 102.612 100.765
29 15 1 97.2901 101.558 99.3834
30 15 1 98.1907 101.077 98.8507
31 16 1 100.435 102.553 102.506
32 16 1 99.6039 102.176 101.748
33 17 1 102.248 98.7244 101.341
34 17 1 103.12 97.894 101.588
35 18 1 102.784 98.2179 100.507
36 18 1 102.185 99.0034 99.8522
37 19 1 100.795 102.042 101.655
38 19 1 100.269 97.0786 101.345
39 20 1 102.818 99.4367 99.06
40 20 1 102.427 98.3084 98.9026
41 21 1 100 97.811 98.0684
42 21 1 99.2041 97.1648 98.7199
43 22 1 98.4723 102.166 99.0347
44 22 1 98.8819 101.452 98.1392
45 23 1 97.4486 102.573 99.032
46 23 1 97.8308 101.959 98.0831
47 24 1 102.445 98.7975 102.406
48 24 1 101.577 99.448 101.85
49 25 1 100.648 101.463 100.14
50 25 1 100.499 100.35 99.7696
51 26 1 102.867 97.433 99.6989
52 26 1 101.924 102.84 100.261
53 27 1 102.334 97.3232 97.1966
54 27 1 102.939 102.345 102.667
55 28 1 98.0686 97.9115 101.254
56 28 1 98.8626 98.5314 100.703
57 29 1 102.513 101.804 97.5345
58 29 1 97.0662 102.749 97.6875
59 30 1 99.7482 101.926 97.607
60 30 1 99.13 102.422 102.667
61 31 1 97.2192 100.593 101.09
62 31 1 102.995 99.4807 100.787
63 32 1 99.2299 100.84 97.2809
64 32 1 100.426 100.841 97.2505
65 33 1 99.4881 97.7333 100.994
66 33 1 99.7287 98.8697 101.268
67 34 1 101.485 99.2611 102.901
68 34 1 101.718 98.1834 97.2926
69 35 1 97.9818 100.537 102.645
70 35 1 98.2189 99.4032 102.514
71 36 1 98.002 102.788 97.1362
72 36 1 98.9558 102.606 97.832
73 37 1 99.7411 98.2625 102.786
74 37 1 98.7288 97.5757 102.674
75 38 1 99.8966 101.467 102.471
76 38 1 99.517 100.807 101.477
77 39 1 99.9094 101.033 98.1292
78 39 1 100.243 101.186 99.2458
79 40 1 101.116 97.4007 100.734
80 40 1 101.238 98.2506 101.596
81 41 1 99.6608 97.3008 102.215
82 41 1 100.717 97.7447 102.66
83 42 1 98.4731 102.322 100.301
84 42 1 97.6607 101.605 100.762
85 43 1 100.414 98.2064 100.725
86 43 1 100.892 99.0947 100.145
87 44 1 100.811 99.1643 101.166
88 44 1 101.851 99.5473 100.741
89 45 1 99.9232 99.391 97.0501
90 45 1 100.783 100.026 102.504
91 46 1 101.401 100.676 100.301
92 46 1 102.219 100.463 101.073
93 47 1 98.3015 97.223 99.3761
94 47 1 99.3182 97.8215 99.655
95 48 1 97.6824 98.0418 98.7216
96 48 1 97.8665 97.8106 97.534
97 49 1 97.6563 99.9213 101.77
98 49 1 98.0431 99.8408 100.658
99 50 1 97.1414 99.5526 102.621
100 50 1 103.014 100.623 102.122
101 51 1 97.3382 99.0121 98.2957
102 51 1 97.8055 100.105 98.5518
103 52 1 97.072 100.516 99.1804
104 52 1 102.83 99.9711 98.1594
105 53 1 99.2581 102.675 99.6673
106 53 1 98.6495 97.4085 100.428
107 54 1 99.9336 101.644 100.922
108 54 1 99.3548 100.69 100.358
109 55 1 102.073 97.6944 101.134
110 55 1 101.921 97.8176 102.303
111 56 1 103.09 100.544 97.2916
112 56 1 102.194 100.875 97.9757
113 57 1 102.588 99.1199 97.4677
114 57 1 97.6312 98.816 97.2967
115 58 1 102.549 102.965 101.894
116 58 1 97.6598 97.2273 102.12
117 59 1 101.102 102.841 98.5922
118 59 1 101.906 97.713 98.2226
119 60 1 97.1662 98.4728 99.5983
120 60 1 97.4869 99.6456 99.7595
121 61 1 100.589 100.908 101.891
122 61 1 100.343 100.636 100.769
123 62 1 101.817 102.436 101.22
124 62 1 101.727 101.74 100.241
125 63 1 100.838 102.192 97.5749
126 63 1 101.69 101.744 98.3159
127 64 1 102.119 100.281 98.9218
128 64 1 101.453 99.8171 99.6875
129 65 1 98.4789 99.0978 98.0239
130 65 1 98.8736 100.137 98.416
131 66 1 100.681 98.1014 99.6727
132 66 1 101.805 97.8934 99.6913
133 67 1 99.1909 99.2123 98.9027
134 67 1 100.326 99.3525 99.3399
135 68 1 97.6695 97.7389 100.237
136 68 1 102.866 97.153 100.815
137 69 1 98.3802 101.352 99.8749
138 69 1 98.4319 100.83 100.958
139 70 1 102.242 99.9479 102.735
140 70 1 102.285 101.182 102.698
141 71 1 101.051 100.763 98.112
142 71 1 100.679 101.784 98.5358
143 72 1 100.127 102.707 98.2129
144 72 1 100.949 97.3959 97.6692
145 73 1 99.9323 98.4136 98.984
146 73 1 100.134 97.3103 99.1018
147 74 1 98.1319 99.1034 98.9923
148 74 1 98.405 100.224 99.4623
149 75 1 99.052 99.8145 100.95
150 75 1 98.6308 99.2933 99.9422
151 76 1 99.4448 99.9398 99.6249
152 76 1 100.259 100.262 98.7843
153 77 1 101.198 99.8218 98.6715
154 77 1 101.358 98.7998 99.1941
155 78 1 102.024 102.982 99.0723
156 78 1 101.037 97.0924 99.6666
157 79 1 101.449 102.096 99.2963
158 79 1 100.314 102.257 99.5135
159 80 1 101.486 102.685 102.819
160 80 1 101.031 101.575 102.62
161 81 2 99.694 100.276 102.443
162 82 2 97.4269 102.492 100.173
163 83 2 100.831 102.32 100.59
164 84 2 98.5174 101.763 97.2109
165 85 2 101.576 98.4079 100.557
166 86 2 98.0651 97.1257 98.3203
167 87 2 97.3362 98.898 101.638
168 88 2 98.7544 97.0775 101.586
169 89 2 98.3565 98.3041 99.6579
170 90 2 99.458 101.703 99.9633
171 91 2 102.496 101.37 101.52
172 92 2 97.9068 102.73 101.098
173 93 2 99.8751 97.1584 97.2832
174 94 2 99.9771 99.5793 100.5
175 95 2 100.673 98.552 97.3943
176 96 2 102.488 100.138 99.9462
177 97 2 96.9495 97.9521 102.703
178 98 2 100.072 99.863 101.55
179 99 2 97.1832 101.104 98.1689
180 100 2 102.88 98.1792 97.7956
181 101 2 101.897 101.983 102.142
182 102 2 98.8201 98.1752 98.6931
183 103 2 102.617 102.289 99.5839
184 104 2 101.484 100.599 97.1282
185 105 2 101.921 102.65 97.8996
186 106 2 100.146 97.2408 100.266
187 107 2 99.2071 100.989 99.176
188 108 2 97.896 98.3326 102.336
189 109 2 97.5841 100.775 100.108
190 110 2 101.824 99.9201 97.8747
191 111 2 97.843 99.7828 97.5604
192 112 2 101.228 97.1503 101.771
193 113 2 98.8186 101.279 102.226
194 114 2 101.246 100.9 99.131
195 115 2 99.5149 101.94 98.8237
196 116 2 100.489 99.0122 98.3424
197 117 2 97.8263 101.248 101.799
198 118 2 100.91 97.9658 98.617
199 119 2 100.492 98.9806 102.205
200 120 2 99.697 98.7384 99.9692
ITEM: TIMESTEP
3000
ITEM: NUMBER OF ATOMS
200
ITEM: BOX BOUNDS pp pp pp
9.6935847747911026e+01 1.0306415225208897e+02
9.7026407132847652e+01 1.0297359286715235e+02
9.7026407132847652e+01 1.0297359286715235e+02
ITEM: ATOMS id mol type x y z
1 1 1 102.588 99.7476 101.714
2 1 1 101.76 100.576 102.017
3 2 1 101.444 98.8989 98.0652
4 2 1 100.76 99.809 97.6375
5 3 1 99.7357 99.9589 97.9012
6 3 1 99.491 98.7903 97.9032
7 4 1 98.8128 99.8437 97.2542
8 4 1 98.1545 100.751 97.7295
9 5 1 99.2534 99.2545 102.13
10 5 1 98.655 100.24 101.784
11 6 1 100.167 98.0823 101.754
12 6 1 98.9777 98.2188 101.893
13 7 1 98.8039 98.6356 97.0554
14 7 1 98.9423 97.7504 97.8114
15 8 1 97.3269 102.145 101.728
16 8 1 102.692 102.181 100.824
17 9 1 101.147 100.158 101.233
18 9 1 101.479 101.302 101.279
19 10 1 102.796 101.197 100.377
20 10 1 102.205 101.221 99.3618
21 11 1 102.758 102.083 98.5953
22 11 1 102.99 97.3967 98.6676
23 12 1 97.6997 98.7907 100.516
24 12 1 98.3711 99.027 101.473
25 13 1 97.396 101.481 102.705
26 13 1 98.2417 102.23 102.164
27 14 1 98.672 101.837 101.239
28 14 1 99.391 102.631 100.788
29 15 1 97.3182 101.587 99.3971
30 15 1 98.137 101.062 98.7851
31 16 1 100.387 102.516 102.567
32 16 1 99.595 102.137 101.739
33 17 1 102.235 98.7609 101.302
34 17 1 96.8744 97.9301 101.703
35 18 1 102.853 98.3071 100.531
36 18 1 102.284 99.0706 99.7697
37 19 1 100.79 102.042 101.668
38 19 1 100.225 103.028 101.322
39 20 1 102.902 99.5729 99.0343
40 20 1 102.383 98.537 98.7667
41 21 1 99.9891 97.834 98.1151
42 21 1 99.1605 97.1763 98.7028
43 22 1 98.4687 102.189 99.0307
44 22 1 98.8763 101.431 98.1415
45 23 1 97.4666 102.563 99.0156
46 23 1 97.8384 101.898 98.1074
47 24 1 102.425 98.7627 102.379
48 24 1 101.582 99.439 101.879
49 25 1 100.678 101.453 100.092
50 25 1 100.56 100.288 99.7695
51 26 1 102.887 97.4437 99.6833
52 26 1 101.96 102.877 100.237
53 27 1 102.365 97.2875 97.2795
54 27 1 102.957 102.372 102.647
55 28 1 98.0191 97.9225 101.212
56 28 1 98.8884 98.5466 100.67
57 29 1 102.508 101.814 97.5508
58 29 1 97.0477 102.72 97.8161
59 30 1 99.7781 101.943 97.5998
60 30 1 99.1442 102.43 102.673
61 31 1 97.1874 100.57 101.064
62 31 1 102.952 99.4566 100.715
63 32 1 99.2108 100.836 97.3371
64 32 1 100.381 100.801 97.2228
65 33 1 99.4895 97.7816 100.987
66 33 1 99.7233 98.9098 101.263
67 34 1 101.491 99.2778 102.97
68 34 1 101.857 98.2093 97.3774
69 35 1 97.9606 100.528 102.637
70 35 1 98.1963 99.3557 102.497
71 36 1 97.8959 102.759 97.1178
72 36 1 98.8568 102.51 97.7895
73 37 1 99.7363 98.2387 102.736
74 37 1 98.7151 97.502 102.701
75 38 1 99.8664 101.473 102.5
76 38 1 99.6277 100.847 101.44
77 39 1 99.8989 101.05 98.1861
78 39 1 100.167 101.186 99.2898
79 40 1 101.129 97.4122 100.758
80 40 1 101.241 98.2142 101.654
81 41 1 99.676 97.3184 102.228
82 41 1 100.715 97.7333 102.638
83 42 1 98.4733 102.35 100.2
84 42 1 97.6649 101.623 100.753
85 43 1 100.462 98.2104 100.763
86 43 1 100.892 99.1197 100.177
87 44 1 100.853 99.1552 101.216
88 44 1 101.843 99.5533 100.672
89 45 1 99.8802 99.3713 97.0351
90 45 1 100.778 100.006 102.508
91 46 1 101.435 100.657 100.298
92 46 1 102.238 100.494 101.065
93 47 1 98.2801 97.2115 99.4369
94 47 1 99.2493 97.8762 99.6591
95 48 1 97.65 98.0952 98.6437
96 48 1 97.933 97.832 97.5129
97 49 1 97.6983 99.8961 101.733
98 49 1 98.0405 99.8406 100.643
99 50 1 97.1342 99.533 102.571
100 50 1 103.096 100.64 102.073
101 51 1 97.1965 99.0133 98.2273
102 51 1 97.6633 100.064 98.5955
103 52 1 97.0001 100.612 99.1594
104 52 1 102.846 100.017 98.0718
105 53 1 99.2935 102.743 99.6638
106 53 1 98.6508 97.4429 100.442
107 54 1 100.01 101.656 100.9
108 54 1 99.4341 100.79 100.254
109 55 1 102.064 97.6839 101.196
110 55 1 101.957 97.7614 102.359
111 56 1 96.969 100.529 97.1468
112 56 1 102.179 100.864 97.8668
113 57 1 102.555 99.0576 97.4878
114 57 1 97.5658 98.7852 97.2773
115 58 1 102.56 96.9199 101.816
116 58 1 97.5917 97.196 102.027
117 59 1 101.124 102.836 98.6351
118 59 1 101.953 97.6365 98.2785
119 60 1 97.1406 98.5362 99.4829
120 60 1 97.5072 99.6262 99.7709
121 61 1 100.619 100.92 101.925
122 61 1 100.41 100.709 100.795
123 62 1 101.762 102.389 101.237
124 62 1 101.822 101.678 100.328
125 63 1 100.94 102.158 97.6891
126 63 1 101.714 101.658 98.4737
127 64 1 102.123 100.319 98.8437
128 64 1 101.511 99.832 99.6913
129 65 1 98.3797 98.9286 97.9874
130 65 1 98.7068 100.011 98.3528
131 66 1 100.732 98.1632 99.7259
132 66 1 101.878 97.9097 99.5266
133 67 1 99.2163 99.1723 98.9381
134 67 1 100.328 99.3582 99.3465
135 68 1 97.6487 97.7134 100.225
136 68 1 102.995 97.2079 100.941
137 69 1 98.514 101.28 99.849
138 69 1 98.497 100.833 100.948
139 70 1 102.271 99.9487 102.709
140 70 1 102.363 101.15 102.692
141 71 1 101.052 100.777 98.0956
142 71 1 100.653 101.795 98.633
143 72 1 100.198 102.713 98.2173
144 72 1 101.016 97.38 97.6905
145 73 1 99.9452 98.4381 98.984
146 73 1 100.191 97.2985 99.1156
147 74 1 98.0613 99.1142 98.9833
148 74 1 98.3981 100.208 99.3982
149 75 1 99.0773 99.8843 100.89
150 75 1 98.6402 99.2983 99.9033
151 76 1 99.4792 99.895 99.6539
152 76 1 100.218 100.26 98.7739
153 77 1 101.141 99.8543 98.6581
154 77 1 101.332 98.8691 99.2051
155 78 1 102.11 102.859 99.0474
156 78 1 101.094 97.1286 99.6652
157 79 1 101.485 102.045 99.426
158 79 1 100.311 102.317 99.5278
159 80 1 101.45 102.726 102.859
160 80 1 100.956 101.62 102.697
161 81 2 99.6197 100.287 102.439
162 82 2 97.3861 102.504 100.18
163 83 2 100.868 102.354 100.583
164 84 2 98.4377 101.724 97.1313
165 85 2 101.659 98.4353 100.483
166 86 2 98.0135 97.1114 98.2956
167 87 2 97.2426 98.9115 101.646
168 88 2 98.7945 103.006 101.597
169 89 2 98.2938 98.3582 99.6716
170 90 2 99.4942 101.763 99.9553
171 91 2 102.532 101.393 101.548
172 92 2 97.9343 102.743 101.055
173 93 2 99.8423 97.1757 97.3172
174 94 2 100.03 99.6447 100.497
175 95 2 100.631 98.5157 97.4492
176 96 2 102.482 100.257 99.9391
177 97 2 103.101 97.9073 102.738
178 98 2 100.051 99.8808 101.567
179 99 2 97.135 101.039 98.1065
180 100 2 102.966 98.0805 97.841
181 101 2 101.874 101.955 102.198
182 102 2 98.8133 98.1879 98.7708
183 103 2 102.642 102.237 99.6837
184 104 2 101.491 100.602 97.0939
185 105 2 101.919 102.562 97.9155
186 106 2 100.159 97.2751 100.255
187 107 2 99.2029 100.862 99.0072
188 108 2 97.8689 98.3116 102.317
189 109 2 97.626 100.761 100.108
190 110 2 101.803 99.8763 97.8015
191 111 2 97.7839 99.7802 97.5783
192 112 2 101.175 97.1267 101.79
193 113 2 98.8434 101.232 102.2
194 114 2 101.195 100.915 99.1686
195 115 2 99.4961 102.012 98.8088
196 116 2 100.43 99.085 98.3424
197 117 2 97.8851 101.13 101.749
198 118 2 100.977 98.0119 98.641
199 119 2 100.482 99.0154 102.17
200 120 2 99.7434 98.7358 100.025
ITEM: TIMESTEP
4000
ITEM: NUMBER OF ATOMS
200
ITEM: BOX BOUNDS pp pp pp
9.6905052505806196e+01 1.0309494749419380e+02
9.7026407132847652e+01 1.0297359286715235e+02
9.7026407132847652e+01 1.0297359286715235e+02
ITEM: ATOMS id mol type x y z
1 1 1 102.601 99.7484 101.725
2 1 1 101.765 100.607 102.009
3 2 1 101.472 98.9124 98.0757
4 2 1 100.758 99.8188 97.6041
5 3 1 99.6916 99.9691 97.9139
6 3 1 99.5381 98.7562 97.8895
7 4 1 98.8372 99.8715 97.2337
8 4 1 98.1545 100.735 97.7927
9 5 1 99.2694 99.2501 102.185
10 5 1 98.7078 100.275 101.904
11 6 1 100.23 98.0627 101.749
12 6 1 98.9846 98.1852 101.862
13 7 1 98.7787 98.6286 97.0228
14 7 1 98.843 97.7741 97.8414
15 8 1 97.1366 102.294 101.68
16 8 1 102.736 102.071 100.752
17 9 1 101.188 100.184 101.247
18 9 1 101.549 101.349 101.281
19 10 1 102.801 101.142 100.367
20 10 1 102.254 101.269 99.3271
21 11 1 102.82 102.022 98.5803
22 11 1 103.038 97.2911 98.6363
23 12 1 97.6843 98.7293 100.642
24 12 1 98.4018 99.0332 101.583
25 13 1 97.3237 101.408 102.641
26 13 1 98.0816 102.196 102.065
27 14 1 98.6892 101.806 101.187
28 14 1 99.3951 102.644 100.739
29 15 1 97.2498 101.553 99.5837
30 15 1 98.0758 101.124 98.7901
31 16 1 100.442 102.547 102.602
32 16 1 99.6794 102.24 101.729
33 17 1 102.327 98.7665 101.384
34 17 1 97.0321 97.9551 101.534
35 18 1 102.832 98.2601 100.539
36 18 1 102.241 99.0172 99.8155
37 19 1 100.855 102.045 101.64
38 19 1 100.268 103.006 101.289
39 20 1 102.939 99.5486 99.1577
40 20 1 102.412 98.6184 98.7096
41 21 1 99.9518 97.7852 98.0301
42 21 1 99.1679 97.109 98.6023
43 22 1 98.4746 102.115 99.0448
44 22 1 98.8536 101.49 98.0817
45 23 1 97.4824 102.437 99.0259
46 23 1 97.6529 101.885 97.9487
47 24 1 102.464 98.8342 102.48
48 24 1 101.611 99.4144 101.916
49 25 1 100.692 101.484 100.048
50 25 1 100.549 100.317 99.7882
51 26 1 102.89 97.4633 99.7269
52 26 1 101.931 102.862 100.21
53 27 1 102.359 97.3198 97.1681
54 27 1 102.978 102.391 102.721
55 28 1 98.0405 97.8783 101.26
56 28 1 98.852 98.5673 100.685
57 29 1 102.552 101.781 97.5855
58 29 1 97.017 102.769 97.732
59 30 1 99.691 101.922 97.4929
60 30 1 99.0239 102.345 102.534
61 31 1 97.1535 100.519 101.089
62 31 1 103.003 99.4168 100.734
63 32 1 99.2884 100.877 97.2971
64 32 1 100.476 100.935 97.1573
65 33 1 99.5201 97.7437 100.993
66 33 1 99.7488 98.8734 101.254
67 34 1 101.469 99.3145 102.954
68 34 1 101.874 98.2475 97.3341
69 35 1 97.9736 100.534 102.711
70 35 1 98.1337 99.3501 102.564
71 36 1 97.8324 102.666 97.0518
72 36 1 98.791 102.532 97.7648
73 37 1 99.7367 98.2097 102.777
74 37 1 98.7188 97.5333 102.701
75 38 1 99.8486 101.465 102.414
76 38 1 99.5472 100.825 101.447
77 39 1 99.9407 101.094 98.0891
78 39 1 100.126 101.162 99.2442
79 40 1 101.102 97.4241 100.729
80 40 1 101.254 98.2856 101.532
81 41 1 99.6419 97.2978 102.175
82 41 1 100.675 97.7146 102.681
83 42 1 98.3964 102.344 100.156
84 42 1 97.6443 101.634 100.749
85 43 1 100.415 98.2578 100.698
86 43 1 100.908 99.1474 100.158
87 44 1 100.808 99.1769 101.208
88 44 1 101.888 99.5532 100.719
89 45 1 99.9424 99.361 97.0493
90 45 1 100.819 99.9951 102.443
91 46 1 101.384 100.712 100.365
92 46 1 102.277 100.527 101.085
93 47 1 98.2562 97.2442 99.3536
94 47 1 99.257 97.859 99.7069
95 48 1 97.6694 98.0239 98.6849
96 48 1 97.8005 97.6951 97.4886
97 49 1 97.6672 99.9353 101.818
98 49 1 98.009 99.7629 100.757