ITEM: TIMESTEP
0
ITEM: NUMBER OF ATOMS
200
ITEM: BOX BOUNDS pp pp pp
9.7020095662525307e+01 1.0297990433747469e+02
9.7020095662525307e+01 1.0297990433747469e+02
9.7020095662525307e+01 1.0297990433747469e+02
ITEM: ATOMS id mol type x y z
1 1 1 102.85 99.1743 100.56
2 1 1 102.869 100.006 99.7828
3 2 1 99.3913 102.809 98.5247
4 2 1 98.3657 102.368 98.119
5 3 1 99.7414 98.7264 98.998
6 3 1 98.9473 98.8624 98.1444
7 4 1 98.3783 101.034 102.316
8 4 1 99.1174 100.852 97.3058
9 5 1 99.0384 98.8946 102.506
10 5 1 98.4524 98.9359 101.515
11 6 1 98.8031 100.178 98.0197
12 6 1 97.7783 100.498 98.4067
13 7 1 98.2966 102.848 102.018
14 7 1 99.0329 97.739 102.519
15 8 1 102.799 100.975 98.6862
16 8 1 101.688 101.193 98.7729
17 9 1 101.854 101.17 102.638
18 9 1 102.559 102.093 102.443
19 10 1 102.064 100.259 99.1472
20 10 1 100.99 100.815 99.3836
21 11 1 102.339 97.1998 98.1011
22 11 1 97.2935 97.6279 98.7816
23 12 1 102.288 97.9428 101.904
24 12 1 102.548 97.1407 101.044
25 13 1 97.6578 102.017 102.212
26 13 1 97.1373 102.135 101.176
27 14 1 100.783 102.716 99.8768
28 14 1 100.012 101.807 100.324
29 15 1 98.0424 97.695 99.4944
30 15 1 97.886 102.559 99.1046
31 16 1 101.054 102.921 102.63
32 16 1 101.344 101.922 102.006
33 17 1 102.73 98.1751 100.881
34 17 1 97.1449 97.4203 100.017
35 18 1 100.493 99.0217 99.7943
36 18 1 100.649 99.2894 98.6165
37 19 1 98.0098 102.85 97.125
38 19 1 97.3517 102.74 98.1717
39 20 1 102.343 98.0241 99.0597
40 20 1 101.223 97.5728 99.2418
41 21 1 98.9042 97.3809 97.6147
42 21 1 98.4647 98.4097 97.2941
43 22 1 98.0275 97.8101 102.53
44 22 1 97.926 98.963 102.463
45 23 1 98.8801 102.938 99.4288
46 23 1 98.3416 97.4439 98.5171
47 24 1 101.887 99.6516 102.347
48 24 1 100.994 98.9123 102.643
49 25 1 100.426 100.742 100.32
50 25 1 101.618 100.704 100.164
51 26 1 97.5584 101.463 100.326
52 26 1 102.806 102.408 100.207
53 27 1 101.441 98.6866 97.6609
54 27 1 102.52 98.1993 97.7158
55 28 1 97.5044 98.2513 101.677
56 28 1 97.8058 98.1891 100.586
57 29 1 102.486 102.09 98.4629
58 29 1 97.2099 101.794 99.3904
59 30 1 100.131 102.358 97.3281
60 30 1 99.0416 102.627 102.86
61 31 1 102.384 99.1214 99.4
62 31 1 101.959 98.6146 100.383
63 32 1 99.5197 101.676 102.712
64 32 1 99.3838 100.833 101.915
65 33 1 101.367 102.942 101.579
66 33 1 101.214 97.935 102.228
67 34 1 99.3635 97.8771 98.5189
68 34 1 100.132 97.6562 99.4244
69 35 1 97.6302 100.296 100.703
70 35 1 102.83 100.229 101.729
71 36 1 98.7791 101.93 102.02
72 36 1 99.4191 102.917 101.925
73 37 1 100.323 102.252 102.221
74 37 1 100.22 101.448 101.381
75 38 1 97.5244 99.4455 101.416
76 38 1 97.7577 100.137 102.363
77 39 1 101.301 101.911 98.0928
78 39 1 100.145 102.002 98.3639
79 40 1 99.9202 98.1964 100.362
80 40 1 99.616 98.8086 101.384
81 41 1 102.067 102.21 101.351
82 41 1 102.105 97.03 102.273
83 42 1 99.1174 101.847 98.8862
84 42 1 98.9787 102.188 100.08
85 43 1 101.714 97.8069 101.034
86 43 1 101.586 98.8053 101.675
87 44 1 102 99.6888 101.229
88 44 1 101.076 99.0317 100.762
89 45 1 100.004 99.2451 102.609
90 45 1 100.883 100.041 102.618
91 46 1 101.181 99.7257 99.4494
92 46 1 101.894 99.356 98.5017
93 47 1 98.8364 102.736 101.047
94 47 1 99.9697 102.463 101.186
95 48 1 97.9957 99.4357 98.2819
96 48 1 97.4895 98.7314 97.4867
97 49 1 102.473 101.07 99.6727
98 49 1 97.637 100.711 99.5129
99 50 1 98.8407 100.073 102.479
100 50 1 98.2868 99.4916 97.2982
101 51 1 97.2818 99.788 97.5546
102 51 1 97.091 100.927 97.6448
103 52 1 98.2613 101.535 99.385
104 52 1 98.543 101.246 98.1934
105 53 1 99.5744 97.7539 101.266
106 53 1 98.8971 98.4765 100.638
107 54 1 101.162 101.139 101.088
108 54 1 100.4 100.42 101.692
109 55 1 101.758 97.6363 97.2256
110 55 1 102.06 98.6545 102.667
111 56 1 97.1933 101.041 102.545
112 56 1 97.3188 101.991 97.3468
113 57 1 101.45 99.771 97.5338
114 57 1 102.402 100.327 102.969
115 58 1 97.1909 97.1706 101.993
116 58 1 97.0647 98.1754 102.634
117 59 1 100.721 98.0257 97.2204
118 59 1 99.981 97.3546 97.8517
119 60 1 98.5633 97.5181 100.362
120 60 1 98.3705 98.6219 99.7408
121 61 1 101.528 100.498 101.86
122 61 1 102.455 101.252 101.681
123 62 1 101.084 101.641 100.103
124 62 1 102.015 102.023 99.4729
125 63 1 97.2989 98.5465 99.6813
126 63 1 97.9568 99.2673 100.454
127 64 1 101.221 100.814 97.4343
128 64 1 101.238 100.231 98.4781
129 65 1 98.7087 100.629 99.0474
130 65 1 99.2197 101.18 99.9052
131 66 1 100.611 98.2413 101.338
132 66 1 100.609 97.2511 100.736
133 67 1 101.079 100.107 100.895
134 67 1 101.951 99.6965 100.188
135 68 1 98.1443 101.944 101.183
136 68 1 98.4701 100.94 100.658
137 69 1 98.9744 99.554 100.784
138 69 1 98.4071 100.126 99.9711
139 70 1 99.3544 99.5838 97.393
140 70 1 100.387 99.0371 97.6358
141 71 1 100.162 101.261 97.4928
142 71 1 101.081 101.924 97.0773
143 72 1 101.597 97.8909 98.2675
144 72 1 101.591 102.705 98.7215
145 73 1 99.4491 99.0548 99.9871
146 73 1 99.1554 97.9942 99.5865
147 74 1 98.1499 98.458 98.7435
148 74 1 97.0408 98.7604 98.5538
149 75 1 99.8812 100.366 102.719
150 75 1 99.5033 99.8 101.73
151 76 1 100.112 99.547 100.742
152 76 1 99.4685 100.11 99.9132
153 77 1 100.678 101.115 98.4009
154 77 1 99.5126 100.881 98.3664
155 78 1 102.054 97.6598 100.008
156 78 1 101.756 102.577 100.357
157 79 1 100.526 97.0459 98.6678
158 79 1 99.8796 102.317 99.4056
159 80 1 102.118 101.396 97.7049
160 80 1 102.229 100.291 98.0523
161 81 2 98.4503 100.175 101.497
162 82 2 97.9448 102.588 100.161
163 83 2 102.214 101.489 100.601
164 84 2 98.4049 101.747 97.186
165 85 2 101.03 98.0499 100.162
166 86 2 97.5604 97.7305 97.6725
167 87 2 102.607 98.9816 101.704
168 88 2 100.947 102.224 100.948
169 89 2 98.5347 97.8435 101.527
170 90 2 100.033 101.244 99.2755
171 91 2 102.979 99.8081 98.614
172 92 2 99.2321 101.661 101.132
173 93 2 100.052 97.3245 102.786
174 94 2 102.584 100.519 100.722
175 95 2 99.6182 98.2881 97.3676
176 96 2 101.394 98.6794 99.3183
177 97 2 102.966 99.3828 102.556
178 98 2 100.691 101.213 102.425
179 99 2 97.6138 101.697 98.3874
180 100 2 100.579 98.1676 98.4242
181 101 2 102.776 97.1304 97.1444
182 102 2 98.8012 99.4379 99.0979
183 103 2 100.881 101.974 99.0967
184 104 2 102.36 99.2286 97.5538
185 105 2 102.64 102.861 99.2158
186 106 2 99.6093 97.1405 100.261
187 107 2 99.523 100.613 100.866
188 108 2 97.7595 97.2164 101.038
189 109 2 97.7135 99.4601 99.3023
190 110 2 100.328 100.151 97.8224
191 111 2 98.0964 100.642 97.3062
192 112 2 101.939 102.464 97.3687
193 113 2 97.5719 101.073 101.561
194 114 2 100.223 100.223 99.0189
195 115 2 101 102.966 97.7105
196 116 2 99.6148 99.6754 98.4225
197 117 2 100.397 97.324 101.804
198 118 2 99.281 101.886 97.7787
199 119 2 100.035 98.2528 102.301
200 120 2 100.603 99.3796 101.716
ITEM: TIMESTEP
1000
ITEM: NUMBER OF ATOMS
200
ITEM: BOX BOUNDS pp pp pp
9.6990147126038849e+01 1.0300985287396115e+02
9.7020095662525307e+01 1.0297990433747469e+02
9.7020095662525307e+01 1.0297990433747469e+02
ITEM: ATOMS id mol type x y z
1 1 1 102.904 99.1338 100.581
2 1 1 102.924 99.9967 99.8249
3 2 1 99.421 102.806 98.4595
4 2 1 98.392 102.376 98.0863
5 3 1 99.771 98.7366 98.9969
6 3 1 98.8722 98.9263 98.1919
7 4 1 98.3381 101.008 102.349
8 4 1 99.132 100.82 97.3135
9 5 1 99.0281 98.9145 102.588
10 5 1 98.5274 98.9687 101.528
11 6 1 98.7217 100.125 98.009
12 6 1 97.7276 100.549 98.3324
13 7 1 98.3004 102.855 102.031
14 7 1 99.0164 97.841 102.47
15 8 1 102.859 101.008 98.701
16 8 1 101.755 101.191 98.7127
17 9 1 101.826 101.292 102.589
18 9 1 102.677 102.104 102.342
19 10 1 102.051 100.235 99.1854
20 10 1 101.055 100.81 99.3699
21 11 1 102.42 97.1345 98.0642
22 11 1 97.2628 97.6921 98.7335
23 12 1 102.35 97.8771 101.905
24 12 1 102.534 97.0865 101.02
25 13 1 97.7145 101.957 102.224
26 13 1 97.052 102.055 101.188
27 14 1 100.694 102.71 99.8717
28 14 1 100.042 101.802 100.323
29 15 1 98.0198 97.6693 99.4468
30 15 1 97.9288 102.528 99.0696
31 16 1 101.007 102.982 102.656
32 16 1 101.217 101.974 102.033
33 17 1 102.727 98.0958 100.914
34 17 1 97.1477 97.4536 100.043
35 18 1 100.469 99.0148 99.8068
36 18 1 100.637 99.2885 98.6087
37 19 1 97.9143 102.731 97.1295
38 19 1 97.3561 102.735 98.1798
39 20 1 102.389 98.0365 99.1825
40 20 1 101.318 97.51 99.3069
41 21 1 99.0595 97.3643 97.582
42 21 1 98.4282 98.3781 97.3526
43 22 1 97.9671 97.7545 102.477
44 22 1 97.9239 98.9514 102.406
45 23 1 98.8555 102.956 99.3788
46 23 1 98.3171 97.4469 98.4232
47 24 1 101.912 99.6624 102.37
48 24 1 101.014 98.9468 102.611
49 25 1 100.449 100.636 100.231
50 25 1 101.654 100.643 100.178
51 26 1 97.4898 101.472 100.302
52 26 1 102.814 102.441 100.192
53 27 1 101.495 98.6703 97.668
54 27 1 102.544 98.1586 97.682
55 28 1 97.4123 98.1841 101.705
56 28 1 97.7667 98.1818 100.607
57 29 1 102.478 102.093 98.3833
58 29 1 97.1526 101.858 99.3532
59 30 1 100.088 102.438 97.4702
60 30 1 99.0551 102.533 102.871
61 31 1 102.434 99.1239 99.3938
62 31 1 101.997 98.5941 100.319
63 32 1 99.5329 101.63 102.753
64 32 1 99.3164 100.897 101.873
65 33 1 101.279 102.943 101.584
66 33 1 101.226 97.9964 102.204
67 34 1 99.2899 97.9767 98.487
68 34 1 100.153 97.6521 99.2918
69 35 1 97.6324 100.194 100.715
70 35 1 102.901 100.194 101.765
71 36 1 98.7727 101.933 102.031
72 36 1 99.3713 102.93 101.935
73 37 1 100.251 102.299 102.282
74 37 1 100.188 101.436 101.441
75 38 1 97.56 99.3925 101.451
76 38 1 97.7459 100.124 102.386
77 39 1 101.31 101.917 98.0923
78 39 1 100.14 101.969 98.396
79 40 1 99.9177 98.2048 100.381
80 40 1 99.6789 98.8661 101.305
81 41 1 102.045 102.194 101.375
82 41 1 102.055 96.9792 102.276
83 42 1 99.1042 101.814 98.8885
84 42 1 98.9232 102.194 100.053
85 43 1 101.666 97.7961 101.075
86 43 1 101.593 98.7854 101.642
87 44 1 102.045 99.6994 101.294
88 44 1 101.104 99.0932 100.753
89 45 1 99.9727 99.2972 102.563
90 45 1 100.897 100.022 102.637
91 46 1 101.233 99.6914 99.4873
92 46 1 101.873 99.3182 98.4831
93 47 1 98.8475 102.754 101.026
94 47 1 99.9949 102.499 101.189
95 48 1 97.9397 99.4614 98.2913
96 48 1 97.4238 98.7209 97.536
97 49 1 102.583 101.045 99.7557
98 49 1 97.6259 100.62 99.3653
99 50 1 98.8424 100.052 102.511
100 50 1 98.3102 99.4465 97.3245
101 51 1 97.3001 99.8035 97.5398
102 51 1 97.0405 100.938 97.6251
103 52 1 98.1967 101.532 99.324
104 52 1 98.5246 101.251 98.1599
105 53 1 99.5242 97.7982 101.294
106 53 1 98.9031 98.5303 100.635
107 54 1 101.224 101.24 101.236
108 54 1 100.414 100.437 101.69
109 55 1 101.785 97.6124 97.1732
110 55 1 102.068 98.641 102.614
111 56 1 97.1695 101.096 102.539
112 56 1 97.1319 102.017 97.4037
113 57 1 101.461 99.7407 97.5149
114 57 1 102.38 100.4 102.982
115 58 1 97.2005 97.1821 102.007
116 58 1 96.9992 98.1678 102.68
117 59 1 100.75 98.0099 97.2078
118 59 1 100.07 97.4934 97.9421
119 60 1 98.5737 97.5724 100.345
120 60 1 98.3708 98.5775 99.7298
121 61 1 101.524 100.538 101.912
122 61 1 102.481 101.252 101.685
123 62 1 101.102 101.584 100.132
124 62 1 102.045 101.966 99.4905
125 63 1 97.2115 98.481 99.6957
126 63 1 97.9398 99.2136 100.392
127 64 1 101.184 100.829 97.4095
128 64 1 101.25 100.193 98.4426
129 65 1 98.6808 100.579 98.9751
130 65 1 99.132 101.2 99.8736
131 66 1 100.655 98.3008 101.324
132 66 1 100.657 97.2855 100.767
133 67 1 101.142 100.176 100.938
134 67 1 102.002 99.665 100.216
135 68 1 98.1459 101.958 101.152
136 68 1 98.429 100.872 100.702
137 69 1 98.9204 99.6341 100.798
138 69 1 98.4164 100.112 99.9031
139 70 1 99.3976 99.5759 97.4148
140 70 1 100.456 99.0032 97.5728
141 71 1 100.179 101.222 97.5265
142 71 1 101.017 101.981 97.0886
143 72 1 101.747 97.8736 98.3521
144 72 1 101.669 102.693 98.7091
145 73 1 99.4334 99.131 99.9881
146 73 1 99.2066 98.0009 99.5979
147 74 1 98.0985 98.4813 98.7102
148 74 1 96.9844 98.7427 98.5504
149 75 1 99.8731 100.349 102.698
150 75 1 99.5081 99.8353 101.66
151 76 1 100.138 99.6473 100.697
152 76 1 99.4523 100.196 99.9053
153 77 1 100.703 101.072 98.4113
154 77 1 99.5413 100.88 98.345
155 78 1 102.102 97.5835 100.08
156 78 1 101.697 102.547 100.348
157 79 1 100.558 96.9528 98.6688
158 79 1 99.8636 102.315 99.3974
159 80 1 102.102 101.342 97.688
160 80 1 102.226 100.267 98.1067
161 81 2 98.4004 100.189 101.518
162 82 2 97.9381 102.611 100.12
163 83 2 102.2 101.527 100.585
164 84 2 98.3912 101.74 97.2002
165 85 2 101.037 98.0476 100.114
166 86 2 97.5081 97.7055 97.6033
167 87 2 102.648 98.9674 101.742
168 88 2 100.918 102.192 100.931
169 89 2 98.4892 97.8451 101.518
170 90 2 100.012 101.211 99.2705
171 91 2 102.984 99.834 98.6418
172 92 2 99.2443 101.675 101.078
173 93 2 99.9651 97.3619 102.866
174 94 2 102.656 100.512 100.749
175 95 2 99.6215 98.4022 97.3874
176 96 2 101.368 98.6226 99.2871
177 97 2 102.952 99.3983 102.628
178 98 2 100.637 101.178 102.434
179 99 2 97.6056 101.699 98.2868
180 100 2 100.761 98.227 98.4891
181 101 2 102.755 97.1426 97.0831
182 102 2 98.7623 99.4263 99.1305
183 103 2 100.929 101.924 99.1333
184 104 2 102.45 99.2319 97.6167
185 105 2 102.7 102.911 99.211
186 106 2 99.6518 97.1531 100.26
187 107 2 99.5298 100.685 100.884
188 108 2 97.6851 97.1796 101.053
189 109 2 97.6502 99.4253 99.3307
190 110 2 100.367 100.094 97.7882
191 111 2 98.0644 100.646 97.3196
192 112 2 101.947 102.421 97.3456
193 113 2 97.6159 101.062 101.513
194 114 2 100.239 100.195 99.0525
195 115 2 101.089 103.011 97.7538
196 116 2 99.5963 99.6998 98.4008
197 117 2 100.347 97.3855 101.847
198 118 2 99.2758 101.875 97.811
199 119 2 100.041 98.3067 102.292
200 120 2 100.618 99.4012 101.723
ITEM: TIMESTEP
2000
ITEM: NUMBER OF ATOMS
200
ITEM: BOX BOUNDS pp pp pp
9.6959897601756779e+01 1.0304010239824322e+02
9.7020095662525307e+01 1.0297990433747469e+02
9.7020095662525307e+01 1.0297990433747469e+02
ITEM: ATOMS id mol type x y z
1 1 1 102.949 99.1983 100.589
2 1 1 102.924 100.029 99.7766
3 2 1 99.4119 102.762 98.42
4 2 1 98.3661 102.307 98.0973
5 3 1 99.8211 98.6998 99.005
6 3 1 99.0276 98.9283 98.1558
7 4 1 98.3157 101.01 102.363
8 4 1 99.088 100.769 97.3771
9 5 1 99.0087 98.8473 102.667
10 5 1 98.594 99.014 101.647
11 6 1 98.7065 100.071 98.0651
12 6 1 97.6739 100.501 98.3432
13 7 1 98.3029 102.865 102.08
14 7 1 98.9196 97.8102 102.549
15 8 1 102.884 100.963 98.7388
16 8 1 101.742 101.145 98.6561
17 9 1 101.832 101.365 102.522
18 9 1 102.771 102.123 102.368
19 10 1 102.083 100.323 99.1973
20 10 1 101.032 100.803 99.4003
21 11 1 102.467 97.2427 98.1687
22 11 1 97.2651 97.661 98.8449
23 12 1 102.264 97.9165 101.895
24 12 1 102.535 97.0397 101.126
25 13 1 97.7055 101.964 102.186
26 13 1 97.0035 101.964 101.229
27 14 1 100.789 102.757 99.7937
28 14 1 100.06 101.927 100.293
29 15 1 98.1112 97.6849 99.5123
30 15 1 97.9195 102.552 99.1059
31 16 1 101.034 102.964 102.65
32 16 1 101.108 102.013 101.991
33 17 1 102.82 98.146 100.858
34 17 1 97.1888 97.4072 100.002
35 18 1 100.473 99.0899 99.7526
36 18 1 100.71 99.2663 98.599
37 19 1 97.9319 102.806 97.2053
38 19 1 97.3238 102.696 98.2126
39 20 1 102.41 98.077 98.9892
40 20 1 101.368 97.5733 99.2153
41 21 1 98.978 97.3844 97.5892
42 21 1 98.42 98.3738 97.4742
43 22 1 97.8489 97.7504 102.567
44 22 1 97.8364 98.9158 102.453
45 23 1 98.8857 102.948 99.3317
46 23 1 98.3096 97.3639 98.4195
47 24 1 101.907 99.6538 102.373
48 24 1 100.973 98.9494 102.628
49 25 1 100.477 100.894 100.317
50 25 1 101.699 100.731 100.196
51 26 1 97.5602 101.471 100.258
52 26 1 102.907 102.425 100.285
53 27 1 101.461 98.7315 97.6368
54 27 1 102.526 98.1967 97.7128
55 28 1 97.3888 98.1818 101.693
56 28 1 97.7903 98.158 100.612
57 29 1 102.516 101.993 98.3756
58 29 1 97.1505 101.858 99.3213
59 30 1 100.098 102.399 97.3735
60 30 1 99.0338 102.576 102.833
61 31 1 102.432 99.0923 99.4456
62 31 1 101.935 98.6909 100.431
63 32 1 99.4893 101.599 102.738
64 32 1 99.2263 100.877 101.863
65 33 1 101.32 102.967 101.566
66 33 1 101.225 97.9726 102.208
67 34 1 99.372 97.9162 98.4737
68 34 1 100.177 97.6651 99.396
69 35 1 97.576 100.155 100.706
70 35 1 102.952 100.067 101.717
71 36 1 98.7541 101.909 102.008
72 36 1 99.3487 102.955 101.935
73 37 1 100.133 102.28 102.251
74 37 1 100.166 101.495 101.381
75 38 1 97.5615 99.2532 101.444
76 38 1 97.7222 100.027 102.383
77 39 1 101.289 101.878 98.0406
78 39 1 100.148 101.937 98.378
79 40 1 99.8744 98.1925 100.313
80 40 1 99.7373 98.8985 101.296
81 41 1 101.998 102.096 101.448
82 41 1 102.088 96.98 102.289
83 42 1 99.1253 101.815 98.8769
84 42 1 98.9744 102.236 100.05
85 43 1 101.765 97.7744 100.979
86 43 1 101.588 98.8029 101.586
87 44 1 102.004 99.7008 101.29
88 44 1 101.08 99.1578 100.68
89 45 1 99.9687 99.2866 102.574
90 45 1 100.89 100.029 102.633
91 46 1 101.268 99.6846 99.3853
92 46 1 101.958 99.2674 98.5062
93 47 1 98.7568 102.717 101.043
94 47 1 99.9368 102.486 101.199
95 48 1 97.9261 99.4087 98.3134
96 48 1 97.4193 98.747 97.4742
97 49 1 102.642 101.049 99.7581
98 49 1 97.6033 100.618 99.3922
99 50 1 98.819 100.059 102.508
100 50 1 98.2074 99.4672 97.3405
101 51 1 97.2267 99.8267 97.6111
102 51 1 96.9943 100.943 97.6263
103 52 1 98.1825 101.55 99.3545
104 52 1 98.5079 101.204 98.242
105 53 1 99.5333 97.777 101.253
106 53 1 98.8509 98.6135 100.731
107 54 1 101.201 101.267 101.149
108 54 1 100.434 100.487 101.661
109 55 1 101.769 97.6632 97.1641
110 55 1 102.019 98.6544 102.607
111 56 1 97.1999 100.98 102.546
112 56 1 97.2284 101.988 97.3169
113 57 1 101.503 99.7381 97.4671
114 57 1 102.332 100.449 102.891
115 58 1 97.0952 97.1193 102.027
116 58 1 96.9006 98.1548 102.679
117 59 1 100.754 98.0472 97.2341
118 59 1 100.074 97.4219 97.8992
119 60 1 98.6758 97.5936 100.429
120 60 1 98.425 98.6455 99.7791
121 61 1 101.511 100.529 101.874
122 61 1 102.517 101.162 101.719
123 62 1 101.166 101.665 100.059
124 62 1 102.103 101.916 99.4098
125 63 1 97.2513 98.4436 99.7185
126 63 1 97.9015 99.1979 100.441
127 64 1 101.236 100.807 97.3833
128 64 1 101.258 100.164 98.4308
129 65 1 98.705 100.603 99.0546
130 65 1 99.1275 101.221 99.9514
131 66 1 100.652 98.3018 101.327
132 66 1 100.579 97.3202 100.722
133 67 1 101.117 100.199 100.9
134 67 1 101.985 99.7225 100.231
135 68 1 98.0715 101.935 101.146
136 68 1 98.4046 100.871 100.739
137 69 1 98.9865 99.6321 100.818
138 69 1 98.3387 100.141 99.937
139 70 1 99.3611 99.6063 97.3957
140 70 1 100.367 99.0296 97.6163
141 71 1 100.164 101.279 97.4981
142 71 1 100.992 102.021 97.0335
143 72 1 101.631 97.917 98.2526
144 72 1 101.672 102.703 98.6439
145 73 1 99.4696 99.1121 99.9641
146 73 1 99.192 98.0329 99.4964
147 74 1 98.2253 98.4451 98.7051
148 74 1 97.0343 98.7326 98.5474
149 75 1 99.8636 100.363 102.662
150 75 1 99.5073 99.878 101.682
151 76 1 100.123 99.6267 100.661
152 76 1 99.4505 100.199 99.8641
153 77 1 100.705 101.052 98.4171
154 77 1 99.5608 100.861 98.3654
155 78 1 102.219 97.7281 99.9775
156 78 1 101.805 102.625 100.33
157 79 1 100.669 97.0231 98.6894
158 79 1 99.9034 102.37 99.3382
159 80 1 102.106 101.365 97.5987
160 80 1 102.287 100.305 98.0717
161 81 2 98.3569 100.179 101.519
162 82 2 97.9981 102.6 100.16
163 83 2 102.224 101.558 100.607
164 84 2 98.3585 101.707 97.1511
165 85 2 101.02 98.0855 100.127
166 86 2 97.4506 97.6864 97.6959
167 87 2 102.636 98.9562 101.721
168 88 2 100.926 102.245 100.894
169 89 2 98.4208 97.8511 101.576
170 90 2 100.021 101.236 99.3091
171 91 2 102.951 99.7821 98.6432
172 92 2 99.1643 101.71 101.064
173 93 2 99.9819 97.3617 102.844
174 94 2 102.697 100.501 100.78
175 95 2 99.6755 98.3063 97.3672
176 96 2 101.445 98.6682 99.3569
177 97 2 102.937 99.3877 102.625
178 98 2 100.657 101.167 102.447
179 99 2 97.5466 101.661 98.3448
180 100 2 100.662 98.2514 98.4947
181 101 2 102.817 97.1209 97.1771
182 102 2 98.7909 99.4064 99.1012
183 103 2 100.984 101.914 99.0725
184 104 2 102.456 99.2337 97.5884
185 105 2 102.653 102.846 99.2652
186 106 2 99.6246 97.144 100.219
187 107 2 99.5957 100.673 100.89
188 108 2 97.6287 97.1221 101.082
189 109 2 97.6665 99.4162 99.3265
190 110 2 100.368 100.15 97.7892
191 111 2 98.0431 100.584 97.3217
192 112 2 101.952 102.5 97.418
193 113 2 97.5645 100.975 101.585
194 114 2 100.281 100.179 99.0829
195 115 2 101.084 102.999 97.7338
196 116 2 99.6426 99.6888 98.4099
197 117 2 100.352 97.2978 101.767
198 118 2 99.2628 101.89 97.7718
199 119 2 100.029 98.2861 102.266
200 120 2 100.622 99.4261 101.699
ITEM: TIMESTEP
3000
ITEM: NUMBER OF ATOMS
200
ITEM: BOX BOUNDS pp pp pp
9.6929344064701453e+01 1.0307065593529855e+02
9.7020095662525307e+01 1.0297990433747469e+02
9.7020095662525307e+01 1.0297990433747469e+02
ITEM: ATOMS id mol type x y z
1 1 1 102.95 99.2781 100.663
2 1 1 103.008 100.063 99.8413
3 2 1 99.3767 102.727 98.5024
4 2 1 98.3835 102.368 98.0033
5 3 1 99.8944 98.7104 98.9602
6 3 1 98.915 98.9149 98.2216
7 4 1 98.3456 100.969 102.31
8 4 1 99.0899 100.772 97.313
9 5 1 99.0612 98.8765 102.476
10 5 1 98.4931 98.9411 101.434
11 6 1 98.7184 100.099 98.0865
12 6 1 97.6682 100.518 98.3019
13 7 1 98.2973 102.82 102.078
14 7 1 98.9459 97.8107 102.552
15 8 1 102.937 101.016 98.7066
16 8 1 101.75 101.163 98.6682
17 9 1 101.921 101.284 102.575
18 9 1 102.674 102.142 102.298
19 10 1 102.122 100.306 99.177
20 10 1 100.994 100.784 99.3938
21 11 1 102.499 97.1855 98.0831
22 11 1 97.2242 97.634 98.7649
23 12 1 102.519 97.8386 101.912
24 12 1 102.725 97.1348 101.002
25 13 1 97.616 101.97 102.212
26 13 1 96.989 102.063 101.197
27 14 1 100.829 102.737 99.7946
28 14 1 100.074 101.924 100.322
29 15 1 97.9721 97.6428 99.4807
30 15 1 97.9782 102.519 98.996
31 16 1 101.013 102.92 102.656
32 16 1 101.277 102.036 101.984
33 17 1 102.896 98.1814 100.858
34 17 1 97.1235 97.4285 100.03
35 18 1 100.523 99.0109 99.8069
36 18 1 100.795 99.2438 98.6612
37 19 1 97.7582 102.676 97.0585
38 19 1 97.3072 102.709 98.1351
39 20 1 102.446 98.1461 99.0596
40 20 1 101.37 97.5896 99.3009
41 21 1 98.9635 97.3762 97.6502
42 21 1 98.4172 98.3888 97.3344
43 22 1 97.9067 97.7101 102.571
44 22 1 97.9618 98.8638 102.458
45 23 1 98.8657 97.0493 99.3834
46 23 1 98.2883 97.4117 98.4508
47 24 1 101.923 99.6465 102.351
48 24 1 101.004 98.9787 102.697
49 25 1 100.444 100.833 100.31
50 25 1 101.639 100.727 100.194
51 26 1 97.471 101.418 100.292
52 26 1 102.91 102.367 100.167
53 27 1 101.45 98.7164 97.7367
54 27 1 102.599 98.1822 97.7139
55 28 1 97.3909 98.1482 101.705
56 28 1 97.7912 98.1641 100.596
57 29 1 102.541 102.108 98.3941
58 29 1 97.0934 101.877 99.2669
59 30 1 100.106 102.353 97.3969
60 30 1 99.0084 102.54 102.911
61 31 1 102.519 99.1486 99.4938
62 31 1 102.037 98.7361 100.526
63 32 1 99.4929 101.581 102.663
64 32 1 99.2692 100.852 101.799
65 33 1 101.291 97.0237 101.429
66 33 1 101.235 97.925 102.218
67 34 1 99.3854 97.8958 98.5338
68 34 1 100.211 97.6958 99.4341
69 35 1 97.5206 100.197 100.79
70 35 1 102.882 100.156 101.744
71 36 1 98.7609 101.871 101.975
72 36 1 99.3299 102.923 101.946
73 37 1 100.264 102.239 102.286
74 37 1 100.178 101.468 101.402
75 38 1 97.4829 99.3024 101.498
76 38 1 97.6298 100.172 102.374
77 39 1 101.293 101.884 98.0945
78 39 1 100.138 101.998 98.3782
79 40 1 99.969 98.1541 100.36
80 40 1 99.6462 98.8118 101.334
81 41 1 102.058 102.266 101.36
82 41 1 101.965 97.0407 102.261
83 42 1 99.0621 101.797 98.9102
84 42 1 98.9681 102.243 100.054
85 43 1 101.85 97.8204 101.113
86 43 1 101.556 98.7969 101.686
87 44 1 102.043 99.7267 101.284
88 44 1 101.1 99.1436 100.739
89 45 1 100.016 99.2873 102.643
90 45 1 100.907 100.067 102.539
91 46 1 101.28 99.7825 99.4604
92 46 1 101.979 99.359 98.5801
93 47 1 98.8227 102.772 101.045
94 47 1 99.9598 102.54 101.22
95 48 1 97.8727 99.429 98.3529
96 48 1 97.374 98.7239 97.5633
97 49 1 102.664 101.095 99.765
98 49 1 97.5803 100.652 99.3512
99 50 1 98.7976 100.016 102.493
100 50 1 98.1864 99.4799 97.3622
101 51 1 97.1696 99.7958 97.5999
102 51 1 96.9235 100.918 97.6252
103 52 1 98.1439 101.513 99.3913
104 52 1 98.4944 101.197 98.2207
105 53 1 99.5724 97.7434 101.247
106 53 1 98.9114 98.445 100.617
107 54 1 101.19 101.219 101.077
108 54 1 100.397 100.499 101.643
109 55 1 101.783 97.6566 97.2193
110 55 1 102.176 98.643 102.657
111 56 1 97.0944 101.061 102.575
112 56 1 103.038 102.004 97.391
113 57 1 101.471 99.7452 97.4439
114 57 1 102.424 100.341 102.956
115 58 1 97.2181 97.1038 102.028
116 58 1 96.9879 98.1463 102.669
117 59 1 100.754 98.0386 97.2169
118 59 1 100.054 97.3363 97.9039
119 60 1 98.5932 97.5101 100.315
120 60 1 98.307 98.5654 99.7915
121 61 1 101.582 100.558 101.8
122 61 1 102.528 101.261 101.696
123 62 1 101.142 101.644 100.088
124 62 1 102.125 101.999 99.4575
125 63 1 97.1203 98.5085 99.865
126 63 1 97.9049 99.2305 100.509
127 64 1 101.232 100.832 97.4044
128 64 1 101.247 100.168 98.4128
129 65 1 98.6938 100.559 99.0535
130 65 1 99.0594 101.237 99.9044
131 66 1 100.668 98.2972 101.302
132 66 1 100.575 97.2925 100.681
133 67 1 101.093 100.142 100.877
134 67 1 102.036 99.7513 100.187
135 68 1 98.0888 101.99 101.131
136 68 1 98.4131 100.92 100.748
137 69 1 98.9803 99.6113 100.747
138 69 1 98.2678 100.147 99.9921
139 70 1 99.2869 99.4992 97.3792
140 70 1 100.368 98.9957 97.6719
141 71 1 100.206 101.242 97.4928
142 71 1 101.072 101.932 97.0917
143 72 1 101.702 97.8283 98.3193
144 72 1 101.654 102.651 98.7161
145 73 1 99.4907 99.0873 100.014
146 73 1 99.1859 98.0279 99.5629
147 74 1 98.0811 98.4193 98.6861
148 74 1 96.9784 98.7815 98.5359
149 75 1 99.8997 100.418 102.641
150 75 1 99.4767 99.8393 101.685
151 76 1 100.101 99.6516 100.741
152 76 1 99.3876 100.168 99.8647
153 77 1 100.684 101.073 98.4292
154 77 1 99.5376 100.861 98.3669
155 78 1 102.226 97.7631 100.041
156 78 1 101.78 102.715 100.385
157 79 1 100.629 97.0377 98.7378
158 79 1 99.8817 102.342 99.3715
159 80 1 102.157 101.377 97.6752
160 80 1 102.256 100.301 98.0935
161 81 2 98.3462 100.153 101.481
162 82 2 97.8865 102.571 100.091
163 83 2 102.215 101.596 100.591
164 84 2 98.3583 101.69 97.1641
165 85 2 101.151 98.0557 100.208
166 86 2 97.4583 97.6743 97.6279
167 87 2 102.635 98.9837 101.738
168 88 2 100.915 102.234 100.869
169 89 2 98.5211 97.8344 101.51
170 90 2 100.011 101.257 99.3178
171 91 2 103.061 99.8304 98.6455
172 92 2 99.2093 101.712 101.05
173 93 2 99.9582 97.3095 102.834
174 94 2 102.677 100.632 100.749
175 95 2 99.6028 98.3413 97.4235
176 96 2 101.515 98.7191 99.459
177 97 2 103.098 99.3846 102.601
178 98 2 100.715 101.213 102.367
179 99 2 97.5602 101.672 98.3185
180 100 2 100.665 98.1517 98.4372
181 101 2 102.763 97.1309 97.0675
182 102 2 98.7069 99.3634 99.1695
183 103 2 100.96 101.916 99.1213
184 104 2 102.423 99.2431 97.5079
185 105 2 102.649 102.939 99.2461
186 106 2 99.5976 97.1401 100.206
187 107 2 99.5433 100.666 100.809
188 108 2 97.721 97.1633 101.029
189 109 2 97.5733 99.4097 99.396
190 110 2 100.337 100.072 97.6642
191 111 2 98.0131 100.582 97.2888
192 112 2 101.961 102.453 97.3625
193 113 2 97.5136 101.046 101.557
194 114 2 100.227 100.155 99.0627
195 115 2 101.085 102.948 97.7683
196 116 2 99.6569 99.6662 98.3822
197 117 2 100.387 97.3606 101.842
198 118 2 99.2855 101.795 97.7863
199 119 2 100.091 98.282 102.345
200 120 2 100.57 99.4267 101.72
ITEM: TIMESTEP
4000
ITEM: NUMBER OF ATOMS
200
ITEM: BOX BOUNDS pp pp pp
9.6898483459493704e+01 1.0310151654050630e+02
9.7020095662525307e+01 1.0297990433747469e+02
9.7020095662525307e+01 1.0297990433747469e+02
ITEM: ATOMS id mol type x y z
1 1 1 102.974 99.2724 100.605
2 1 1 102.995 100.038 99.7298
3 2 1 99.4064 102.759 98.4365
4 2 1 98.318 102.383 98.0491
5 3 1 99.8225 98.726 99.0089
6 3 1 98.9454 98.9234 98.1354
7 4 1 98.2879 101.008 102.334
8 4 1 99.1018 100.824 97.3461
9 5 1 99.0019 98.8802 102.563
10 5 1 98.4398 98.9888 101.552
11 6 1 98.7238 100.172 98.1203
12 6 1 97.6833 100.519 98.4478
13 7 1 98.2231 102.884 102.064
14 7 1 98.9262 97.7363 102.542
15 8 1 102.978 100.983 98.7365
16 8 1 101.82 101.166 98.6391
17 9 1 101.891 101.336 102.552
18 9 1 102.754 102.123 102.353
19 10 1 102.15 100.276 99.1644
20 10 1 101.094 100.788 99.3742
21 11 1 102.513 97.2308 98.1469
22 11 1 97.1891 97.6453 98.8075
23 12 1 102.347 97.887 101.94
24 12 1 102.598 97.1342 101.043
25 13 1 97.6201 101.985 102.264
26 13 1 97.0089 102.067 101.222
27 14 1 100.798 102.687 99.8226
28 14 1 100.036 101.896 100.324
29 15 1 98.0261 97.6792 99.4717
30 15 1 97.8529 102.572 99.0355
31 16 1 101.089 102.943 102.634
32 16 1 101.265 101.979 101.984
33 17 1 102.825 98.1725 100.802
34 17 1 97.1327 97.4248 100.002
35 18 1 100.504 99.0863 99.81
36 18 1 100.679 99.2678 98.6181
37 19 1 97.8399 102.754 97.1096
38 19 1 97.2311 102.706 98.1344
39 20 1 102.41 98.0696 99.0082
40 20 1 101.419 97.4854 99.2637
41 21 1 98.9075 97.3695 97.6606
42 21 1 98.3496 98.3508 97.3761
43 22 1 97.8433 97.7934 102.503
44 22 1 97.7707 98.9696 102.43
45 23 1 98.8349 96.9972 99.3612
46 23 1 98.2045 97.438 98.4307
47 24 1 101.937 99.6646 102.376
48 24 1 101.028 98.9626 102.7
49 25 1 100.454 100.775 100.329
50 25 1 101.665 100.741 100.256
51 26 1 97.4464 101.461 100.316
52 26 1 102.916 102.406 100.23
53 27 1 101.493 98.7231 97.7485
54 27 1 102.615 98.1824 97.6864
55 28 1 97.3474 98.1887 101.636
56 28 1 97.7571 98.1372 100.532
57 29 1 102.653 102.02 98.3811
58 29 1 97.0691 101.853 99.3855
59 30 1 100.058 102.386 97.4349
60 30 1 98.9692 102.605 102.892
61 31 1 102.545 99.1014 99.3672
62 31 1 102.006 98.6741 100.336
63 32 1 99.4829 101.657 102.723
64 32 1 99.2624 100.858 101.893
65 33 1 101.395 97.0328 101.465
66 33 1 101.276 97.9617 102.241
67 34 1 99.2705 97.9285 98.4738
68 34 1 100.076 97.5863 99.3642
69 35 1 97.5493 100.16 100.717
70 35 1 102.989 100.215 101.71
71 36 1 98.6852 101.931 102.017
72 36 1 99.3577 102.905 101.972
73 37 1 100.265 102.282 102.27
74 37 1 100.22 101.446 101.404
75 38 1 97.4702 99.3621 101.511
76 38 1 97.6665 100.132 102.405
77 39 1 101.261 101.876 98.0459
78 39 1 100.106 101.941 98.403
79 40 1 99.941 98.2013 100.349
80 40 1 99.7007 98.779 101.391
81 41 1 102.097 102.212 101.355
82 41 1 102.104 96.9656 102.31
83 42 1 99.0934 101.777 98.9467
84 42 1 98.9586 102.204 100.073
85 43 1 101.776 97.8928 101.025
86 43 1 101.632 98.8257 101.717
87 44 1 102.012 99.7202 101.263
88 44 1 101.127 99.086 100.742
89 45 1 99.9797 99.2736 102.59
90 45 1 100.901 100.059 102.626
91 46 1 101.306 99.6681 99.4566
92 46 1 102.005 99.3579 98.4679
93 47 1 98.8115 102.696 101.065
94 47 1 99.9574 102.478 101.201
95 48 1 97.8646 99.4415 98.3393
96 48 1 97.3401 98.7939 97.4958
97 49 1 102.696 101.043 99.7549
98 49 1 97.6217 100.649 99.5166