ITEM: TIMESTEP
0
ITEM: NUMBER OF ATOMS
200
ITEM: BOX BOUNDS pp pp pp
9.7025305423552794e+01 1.0297469457644721e+02
9.7025305423552794e+01 1.0297469457644721e+02
9.7025305423552794e+01 1.0297469457644721e+02
ITEM: ATOMS id mol type x y z
1 1 1 102.431 99.9106 100.924
2 1 1 102.709 99.6899 99.7396
3 2 1 102.537 100.972 101.236
4 2 1 102.509 101.667 102.176
5 3 1 98.5644 101.08 98.1149
6 3 1 98.8104 99.9818 98.3809
7 4 1 100.736 101.795 102.161
8 4 1 99.8609 101.985 101.394
9 5 1 99.8199 100.1 101.141
10 5 1 99.3551 101.037 101.687
11 6 1 102.011 99.3893 97.7889
12 6 1 97.0793 99.9862 97.824
13 7 1 98.9604 97.6406 102.376
14 7 1 99.0552 102.611 97.0588
15 8 1 102.242 100.58 99.9256
16 8 1 101.934 100.874 98.8293
17 9 1 100.987 100.77 97.8077
18 9 1 101.039 101.82 97.2465
19 10 1 102.747 101.42 100.299
20 10 1 101.684 101.46 99.653
21 11 1 101.957 101.301 97.0842
22 11 1 97.0987 101.847 97.106
23 12 1 97.5812 98.2945 101.527
24 12 1 98.5007 97.5857 101.318
25 13 1 97.8438 101.316 100.646
26 13 1 97.1139 101.905 101.28
27 14 1 100.434 102.881 101.023
28 14 1 99.8819 102.084 100.315
29 15 1 99.1819 101.672 99.6928
30 15 1 98.1982 101.364 99.1308
31 16 1 101.303 102.411 101.487
32 16 1 100.766 102.833 102.458
33 17 1 97.0855 99.6595 102.758
34 17 1 97.5466 98.612 102.51
35 18 1 102.02 98.0295 100.167
36 18 1 97.3182 98.2439 100.477
37 19 1 102.763 102.87 102.822
38 19 1 102.444 102.695 101.746
39 20 1 101.905 97.8644 98.7873
40 20 1 100.772 97.3362 98.8335
41 21 1 98.2654 98.0838 97.0911
42 21 1 97.8374 102.906 97.2912
43 22 1 97.176 97.7446 98.3308
44 22 1 97.6194 98.6403 98.7717
45 23 1 97.769 101.844 98.3319
46 23 1 97.9742 97.0681 98.3709
47 24 1 101.917 98.4122 102.106
48 24 1 100.814 98.7343 101.964
49 25 1 100.677 101.432 99.995
50 25 1 101.614 101.077 100.645
51 26 1 97.683 97.2878 99.3475
52 26 1 102.785 97.3415 100.192
53 27 1 101.964 97.765 102.914
54 27 1 101.178 102.928 97.4343
55 28 1 97.2718 97.2653 101.197
56 28 1 97.3123 102.365 100.335
57 29 1 102.746 101.374 98.0668
58 29 1 102.018 100.502 97.8464
59 30 1 98.6126 102.275 97.9805
60 30 1 98.2105 101.977 102.822
61 31 1 97.4275 99.3147 100.813
62 31 1 97.6545 99.2417 99.636
63 32 1 98.3009 101.597 101.704
64 32 1 99.3041 101.928 102.276
65 33 1 98.2223 99.3413 102.749
66 33 1 98.6381 98.586 101.882
67 34 1 99.2951 98.1847 97.3769
68 34 1 100.023 97.5964 98.1427
69 35 1 97.9653 100.461 101.446
70 35 1 98.216 99.8865 100.401
71 36 1 98.0832 102.452 101.059
72 36 1 97.4858 102.373 102.152
73 37 1 99.2567 102.805 100.97
74 37 1 99.4687 97.9315 101.469
75 38 1 98.7293 101.005 102.546
76 38 1 97.8388 101.129 97.3884
77 39 1 99.2798 101.702 98.6032
78 39 1 99.4401 102.916 98.8827
79 40 1 100.55 97.6094 101.788
80 40 1 99.8972 98.2781 102.485
81 41 1 99.94 97.3222 97.1461
82 41 1 100.893 97.9586 102.782
83 42 1 100.885 101.141 98.9106
84 42 1 100.211 101.444 97.9545
85 43 1 100.898 97.6019 100.309
86 43 1 100.367 98.3758 101.089
87 44 1 101.702 99.0968 101.293
88 44 1 102.515 98.1404 101.194
89 45 1 99.2535 99.1343 102.714
90 45 1 100.435 99.231 102.866
91 46 1 101.679 99.8201 98.6881
92 46 1 101.869 98.9728 99.5428
93 47 1 99.0283 98.0593 99.9637
94 47 1 99.5858 98.8533 100.589
95 48 1 98.622 98.993 98.8235
96 48 1 98.2451 98.1175 98.1247
97 49 1 97.9136 100.323 102.53
98 49 1 102.966 100.148 101.822
99 50 1 98.6248 99.9257 99.4102
100 50 1 98.5599 100.91 100.017
101 51 1 98.146 100.093 97.5701
102 51 1 97.6265 100.736 98.4195
103 52 1 97.7262 100.396 99.4675
104 52 1 102.708 100.222 98.8144
105 53 1 99.1602 102.842 99.8866
106 53 1 98.2597 102.072 100.011
107 54 1 101.159 102.392 100.234
108 54 1 100.79 101.595 101.023
109 55 1 102.786 97.814 102.181
110 55 1 102.532 98.7329 102.878
111 56 1 102.615 99.1773 98.7091
112 56 1 101.488 98.7897 98.5156
113 57 1 101.477 98.8016 97.0893
114 57 1 102.313 98.4036 97.9069
115 58 1 102.287 97.3595 97.8479
116 58 1 97.2126 97.8429 97.2884
117 59 1 99.3545 98.4488 98.3414
118 59 1 100.301 98.4817 97.5701
119 60 1 98.0553 98.2589 99.6416
120 60 1 98.2996 98.5846 100.803
121 61 1 102.12 100.596 102.297
122 61 1 101.935 99.4445 102.276
123 62 1 102.59 97.0847 99.0194
124 62 1 97.4245 102.191 99.2852
125 63 1 102.068 101.98 100.923
126 63 1 101.884 97.1903 100.811
127 64 1 100.413 98.5074 98.6281
128 64 1 100.864 99.3412 99.3164
129 65 1 99.3168 99.9226 100.165
130 65 1 100.141 100.558 99.5566
131 66 1 101.088 98.1654 99.3679
132 66 1 99.9096 97.8074 99.3382
133 67 1 102.416 98.9468 100.501
134 67 1 101.545 99.7698 100.36
135 68 1 98.6656 97.6703 99.0261
136 68 1 98.8997 97.358 97.8714
137 69 1 98.8558 100.519 100.965
138 69 1 98.8327 100.008 102.065
139 70 1 99.6917 99.3788 97.802
140 70 1 99.7574 99.7992 98.9033
141 71 1 100.339 100.204 97.2443
142 71 1 99.1691 100.233 97.1924
143 72 1 100.1 102.182 97.062
144 72 1 100.675 102.37 98.1653
145 73 1 100.306 99.639 100.154
146 73 1 100.367 98.4798 100.025
147 74 1 98.6716 99.062 99.9675
148 74 1 98.8693 99.4847 101.075
149 75 1 100.843 99.9356 102.146
150 75 1 100.682 99.4403 101.106
151 76 1 100.407 100.842 101.722
152 76 1 100.721 100.446 100.674
153 77 1 100.678 100.169 98.5852
154 77 1 99.6786 100.53 98.0825
155 78 1 101.639 102.8 98.4413
156 78 1 101.61 97.2144 99.5724
157 79 1 101.115 102.214 99.1386
158 79 1 100.3 102.851 99.7725
159 80 1 101.702 102.304 102.526
160 80 1 101.567 101.343 101.754
161 81 2 99.9542 101.054 102.719
162 82 2 98.5307 102.44 99.0712
163 83 2 102.306 102.26 99.8856
164 84 2 98.9589 101.684 100.732
165 85 2 101.421 98.111 101.217
166 86 2 102.965 102.533 98.0981
167 87 2 102.765 99.1059 101.714
168 88 2 99.7137 102.845 102.01
169 89 2 98.1967 97.2702 100.299
170 90 2 100.106 101.944 99.1337
171 91 2 97.3021 100.422 100.523
172 92 2 99.6472 102.475 97.9467
173 93 2 98.6153 102.678 101.935
174 94 2 101.533 100.247 101.44
175 95 2 98.5612 99.0447 97.7369
176 96 2 102.827 98.2935 99.4306
177 97 2 97.4131 98.928 97.7611
178 98 2 101.461 99.934 97.1565
179 99 2 102.914 101.231 99.2605
180 100 2 101.231 97.9249 97.9217
181 101 2 102.109 102.195 97.6181
182 102 2 99.6637 98.9165 99.4399
183 103 2 102.281 102.025 98.8348
184 104 2 101.038 100.822 102.674
185 105 2 101.533 101.586 98.21
186 106 2 99.8175 97.6619 100.513
187 107 2 99.8324 101.047 100.615
188 108 2 97.8083 97.4713 102.25
189 109 2 97.9059 99.3663 101.733
190 110 2 100.872 99.3864 97.9103
191 111 2 97.7846 99.6754 98.6055
192 112 2 101.625 97.4171 101.985
193 113 2 97.4878 101.206 102.199
194 114 2 101.214 100.429 99.617
195 115 2 99.2255 101.476 97.4208
196 116 2 99.2037 100.798 99.1329
197 117 2 102.901 100.739 97.0524
198 118 2 99.852 100.023 102.23
199 119 2 99.6973 99.0345 101.639
200 120 2 101.262 98.7426 100.403
ITEM: TIMESTEP
1000
ITEM: NUMBER OF ATOMS
200
ITEM: BOX BOUNDS pp pp pp
9.6995409246035138e+01 1.0300459075396486e+02
9.7025305423552794e+01 1.0297469457644721e+02
9.7025305423552794e+01 1.0297469457644721e+02
ITEM: ATOMS id mol type x y z
1 1 1 102.387 99.8817 100.907
2 1 1 102.739 99.7182 99.7513
3 2 1 102.463 100.908 101.197
4 2 1 102.514 101.623 102.178
5 3 1 98.5926 101.098 98.1098
6 3 1 98.8503 99.9814 98.3425
7 4 1 100.733 101.812 102.104
8 4 1 99.8993 102.014 101.393
9 5 1 99.7562 100.097 101.104
10 5 1 99.4147 101.058 101.728
11 6 1 102.22 99.4255 97.6071
12 6 1 97.1086 100.086 97.7758
13 7 1 99.0057 97.7563 102.418
14 7 1 98.9396 102.706 97.0839
15 8 1 102.234 100.595 99.975
16 8 1 101.857 100.92 98.9137
17 9 1 100.958 100.699 97.8703
18 9 1 101.065 101.762 97.2452
19 10 1 102.787 101.445 100.272
20 10 1 101.713 101.533 99.7405
21 11 1 102.005 101.247 97.1457
22 11 1 97.0628 101.858 97.1367
23 12 1 97.5651 98.2549 101.52
24 12 1 98.4702 97.5421 101.258
25 13 1 97.8787 101.262 100.662
26 13 1 97.0611 101.867 101.279
27 14 1 100.471 102.918 100.948
28 14 1 99.9191 102.076 100.334
29 15 1 99.2063 101.739 99.6438
30 15 1 98.1171 101.362 99.248
31 16 1 101.285 102.483 101.401
32 16 1 100.781 102.802 102.443
33 17 1 97.1054 99.6238 102.739
34 17 1 97.5734 98.5621 102.548
35 18 1 102.139 97.9884 100.139
36 18 1 97.3285 98.2174 100.478
37 19 1 102.695 102.837 102.813
38 19 1 102.427 102.649 101.665
39 20 1 101.908 97.8243 98.7477
40 20 1 100.824 97.2817 98.9005
41 21 1 98.2373 97.9485 97.185
42 21 1 97.7693 102.803 97.3084
43 22 1 97.1337 97.6815 98.3313
44 22 1 97.5155 98.7047 98.6794
45 23 1 97.6973 101.794 98.3251
46 23 1 97.9809 97.0277 98.2987
47 24 1 101.906 98.3869 102.078
48 24 1 100.828 98.7994 101.91
49 25 1 100.692 101.424 99.9822
50 25 1 101.582 101.016 100.655
51 26 1 97.6945 97.3135 99.2487
52 26 1 102.917 97.3158 100.146
53 27 1 102.016 97.8115 102.942
54 27 1 101.288 102.908 97.3902
55 28 1 97.3301 97.2857 101.178
56 28 1 97.2926 102.326 100.393
57 29 1 102.762 101.355 98.0645
58 29 1 101.996 100.451 97.8801
59 30 1 98.5971 102.214 97.9348
60 30 1 98.2273 101.914 102.786
61 31 1 97.431 99.2463 100.767
62 31 1 97.6169 99.2208 99.607
63 32 1 98.4018 101.488 101.677
64 32 1 99.2933 101.921 102.38
65 33 1 98.2437 99.4046 102.722
66 33 1 98.6508 98.6069 101.874
67 34 1 99.2986 98.2216 97.4262
68 34 1 100.057 97.5618 98.1434
69 35 1 97.8854 100.442 101.459
70 35 1 98.1603 99.9963 100.384
71 36 1 98.0727 102.453 101.066
72 36 1 97.4283 102.429 102.101
73 37 1 99.3118 102.849 100.943
74 37 1 99.4891 97.9871 101.389
75 38 1 98.7841 100.982 102.613
76 38 1 97.8008 101.117 97.3965
77 39 1 99.2653 101.726 98.5932
78 39 1 99.4395 102.902 98.835
79 40 1 100.538 97.6642 101.808
80 40 1 99.9512 98.3034 102.566
81 41 1 99.9095 97.3062 97.0949
82 41 1 100.963 97.8828 102.801
83 42 1 100.768 101.052 98.8677
84 42 1 100.274 101.487 97.9014
85 43 1 100.931 97.6473 100.182
86 43 1 100.468 98.3606 101.018
87 44 1 101.764 99.0342 101.226
88 44 1 102.556 98.1136 101.166
89 45 1 99.3138 99.1364 102.851
90 45 1 100.52 99.1467 102.838
91 46 1 101.703 99.8339 98.779
92 46 1 102.048 98.8732 99.4275
93 47 1 98.8934 98.0903 100.13
94 47 1 99.5882 98.8773 100.652
95 48 1 98.5311 99.0007 98.8986
96 48 1 98.179 98.09 98.2079
97 49 1 97.848 100.386 102.548
98 49 1 102.939 100.153 101.843
99 50 1 98.5426 99.959 99.3859
100 50 1 98.7005 100.908 100.047
101 51 1 98.1614 100.103 97.5641
102 51 1 97.6346 100.732 98.4402
103 52 1 97.5548 100.35 99.5736
104 52 1 102.74 100.318 98.7273
105 53 1 99.0488 102.911 99.8648
106 53 1 98.2314 102.112 100.013
107 54 1 101.174 102.386 100.267
108 54 1 100.797 101.607 101.014
109 55 1 102.814 97.7929 102.159
110 55 1 102.57 98.7147 102.813
111 56 1 102.647 99.2664 98.6299
112 56 1 101.562 98.8075 98.453
113 57 1 101.482 98.7088 97.1982
114 57 1 102.411 98.3904 97.9205
115 58 1 102.293 97.3064 97.8521
116 58 1 97.1317 97.8523 97.2092
117 59 1 99.3833 98.3666 98.4779
118 59 1 100.263 98.536 97.6887
119 60 1 97.9844 98.2823 99.6523
120 60 1 98.2824 98.588 100.863
121 61 1 102.075 100.624 102.241
122 61 1 101.867 99.4464 102.24
123 62 1 102.597 97.0788 99.0351
124 62 1 97.3786 102.227 99.2633
125 63 1 102.041 101.899 100.893
126 63 1 101.93 97.1095 100.699
127 64 1 100.338 98.822 98.7223
128 64 1 101.081 99.3249 99.4511
129 65 1 99.2774 99.9489 100.171
130 65 1 100.003 100.705 99.603
131 66 1 101.142 98.1937 99.2976
132 66 1 99.9739 97.8633 99.2967
133 67 1 102.537 98.9299 100.417
134 67 1 101.567 99.7326 100.309
135 68 1 98.7025 97.6582 99.1223
136 68 1 98.9392 97.377 97.9944
137 69 1 98.8021 100.621 101.021
138 69 1 98.7394 100.011 102.056
139 70 1 99.7147 99.4427 97.9797
140 70 1 99.6149 99.8448 99.0824
141 71 1 100.346 100.168 97.1884
142 71 1 99.1914 100.225 97.2957
143 72 1 100.144 102.165 97.0295
144 72 1 100.685 102.436 98.1141
145 73 1 100.285 99.7337 99.9989
146 73 1 100.418 98.5757 99.9439
147 74 1 98.6269 99.1123 100.035
148 74 1 98.7996 99.5221 101.128
149 75 1 100.765 99.9014 102.095
150 75 1 100.722 99.4088 101.002
151 76 1 100.456 100.863 101.728
152 76 1 100.679 100.438 100.694
153 77 1 100.6 99.9829 98.8032
154 77 1 99.835 100.557 98.209
155 78 1 101.648 102.74 98.4353
156 78 1 101.628 97.1533 99.5955
157 79 1 101.148 102.194 99.1593
158 79 1 100.296 102.853 99.7325
159 80 1 101.743 102.239 102.519
160 80 1 101.566 101.401 101.679
161 81 2 99.998 101.074 102.719
162 82 2 98.4739 102.419 99.0221
163 83 2 102.349 102.301 99.9135
164 84 2 98.9777 101.765 100.699
165 85 2 101.427 97.9788 101.187
166 86 2 102.975 102.488 98.1063
167 87 2 102.759 99.0672 101.704
168 88 2 99.7172 102.895 101.945
169 89 2 98.0257 97.2894 100.301
170 90 2 100.111 101.985 99.1653
171 91 2 97.2114 100.411 100.61
172 92 2 99.639 102.448 97.9268
173 93 2 98.6316 102.693 101.942
174 94 2 101.506 100.209 101.423
175 95 2 98.504 99.0176 97.7872
176 96 2 102.924 98.1384 99.3271
177 97 2 97.4432 98.9448 97.6597
178 98 2 101.424 99.9614 97.0736
179 99 2 102.913 101.278 99.2069
180 100 2 101.228 97.8257 97.9373
181 101 2 102.09 102.122 97.6662
182 102 2 99.5473 98.9172 99.4873
183 103 2 102.321 102.028 98.8208
184 104 2 101.046 100.876 102.641
185 105 2 101.468 101.554 98.2208
186 106 2 99.8276 97.6919 100.427
187 107 2 99.8325 101.064 100.702
188 108 2 97.8252 97.4424 102.278
189 109 2 97.8005 99.3069 101.755
190 110 2 100.949 99.5048 97.904
191 111 2 97.7536 99.7242 98.5827
192 112 2 101.721 97.3675 102.066
193 113 2 97.5081 101.328 102.22
194 114 2 101.216 100.498 99.6769
195 115 2 99.3001 101.469 97.4339
196 116 2 99.0827 100.781 99.0906
197 117 2 102.911 100.719 102.936
198 118 2 99.7606 100.074 102.284
199 119 2 99.7168 99.1185 101.728
200 120 2 101.387 98.6812 100.335
ITEM: TIMESTEP
2000
ITEM: NUMBER OF ATOMS
200
ITEM: BOX BOUNDS pp pp pp
9.6965212606938238e+01 1.0303478739306176e+02
9.7025305423552794e+01 1.0297469457644721e+02
9.7025305423552794e+01 1.0297469457644721e+02
ITEM: ATOMS id mol type x y z
1 1 1 102.518 99.9153 100.949
2 1 1 102.773 99.6588 99.7523
3 2 1 102.592 100.965 101.285
4 2 1 102.486 101.698 102.255
5 3 1 98.5748 101.071 98.0984
6 3 1 98.8062 99.9594 98.345
7 4 1 100.784 101.768 102.15
8 4 1 99.9052 102.027 101.453
9 5 1 99.751 100.085 101.157
10 5 1 99.3427 101.129 101.699
11 6 1 102.172 99.4333 97.584
12 6 1 97.0719 100.052 97.8443
13 7 1 98.9121 97.7107 102.275
14 7 1 98.985 102.77 97.083
15 8 1 102.303 100.543 99.901
16 8 1 101.91 100.855 98.8682
17 9 1 101.116 100.719 97.8455
18 9 1 101.115 101.764 97.2681
19 10 1 102.754 101.418 100.303
20 10 1 101.707 101.455 99.6979
21 11 1 102.049 101.271 97.1859
22 11 1 97.0621 101.878 97.1447
23 12 1 97.5441 98.1986 101.527
24 12 1 98.455 97.5446 101.282
25 13 1 97.8646 101.331 100.746
26 13 1 97.0063 101.907 101.294
27 14 1 100.373 102.901 100.975
28 14 1 99.9425 102.072 100.323
29 15 1 99.1769 101.763 99.6747
30 15 1 98.1453 101.41 99.1496
31 16 1 101.286 102.439 101.432
32 16 1 100.748 102.851 102.412
33 17 1 97.0862 99.646 102.791
34 17 1 97.5741 98.5712 102.527
35 18 1 102.095 98.0741 100.149
36 18 1 97.2487 98.2957 100.42
37 19 1 102.706 102.834 102.802
38 19 1 102.362 102.652 101.638
39 20 1 101.925 97.8292 98.7422
40 20 1 100.811 97.2653 98.8099
41 21 1 98.2168 97.8891 97.2205
42 21 1 97.7019 102.783 97.288
43 22 1 97.1049 97.7319 98.3439
44 22 1 97.5711 98.7073 98.7355
45 23 1 97.7504 101.825 98.2755
46 23 1 97.9432 97.0478 98.2847
47 24 1 101.94 98.4156 102.082
48 24 1 100.863 98.7202 101.933
49 25 1 100.692 101.398 100.023
50 25 1 101.656 101.003 100.653
51 26 1 97.6471 97.3159 99.2406
52 26 1 102.905 97.3688 100.122
53 27 1 102.011 97.8133 102.962
54 27 1 101.254 102.909 97.3972
55 28 1 97.1956 97.2373 101.199
56 28 1 97.2131 102.324 100.353
57 29 1 102.825 101.382 98.0964
58 29 1 102.129 100.475 97.884
59 30 1 98.6364 102.236 97.8981
60 30 1 98.1969 101.952 102.786
61 31 1 97.3412 99.3145 100.842
62 31 1 97.6254 99.1991 99.6693
63 32 1 98.3024 101.511 101.758
64 32 1 99.2301 101.966 102.408
65 33 1 98.2335 99.3947 102.738
66 33 1 98.6463 98.7153 101.852
67 34 1 99.2476 98.0952 97.3943
68 34 1 100.033 97.5787 98.1364
69 35 1 97.867 100.495 101.418
70 35 1 98.1205 99.8794 100.38
71 36 1 97.9817 102.376 101.127
72 36 1 97.4375 102.406 102.156
73 37 1 99.2909 102.828 100.95
74 37 1 99.4663 98.0217 101.351
75 38 1 98.7452 100.994 102.588
76 38 1 97.7864 101.139 97.3899
77 39 1 99.2569 101.746 98.5914
78 39 1 99.5226 102.89 98.9169
79 40 1 100.505 97.6614 101.708
80 40 1 99.9397 98.2518 102.499
81 41 1 99.9323 97.3006 97.1316
82 41 1 100.908 97.935 102.819
83 42 1 100.87 101.022 98.8539
84 42 1 100.277 101.39 97.9048
85 43 1 100.903 97.5945 100.254
86 43 1 100.432 98.4058 100.988
87 44 1 101.795 99.095 101.296
88 44 1 102.562 98.1639 101.193
89 45 1 99.2649 99.1405 102.745
90 45 1 100.441 99.2329 102.853
91 46 1 101.728 99.8347 98.7239
92 46 1 102.038 98.9131 99.4867
93 47 1 98.8773 97.9621 100.242
94 47 1 99.5504 98.8393 100.606
95 48 1 98.5999 98.9609 98.8799
96 48 1 98.1589 98.0681 98.2573
97 49 1 97.8551 100.378 102.546
98 49 1 102.992 100.165 101.84
99 50 1 98.5839 99.9189 99.3868
100 50 1 98.5224 100.916 100.013
101 51 1 98.1081 100.131 97.5538
102 51 1 97.6039 100.773 98.4453
103 52 1 97.6824 100.419 99.5223
104 52 1 102.791 100.298 98.8461
105 53 1 99.0872 102.863 99.8955
106 53 1 98.1701 102.118 99.984
107 54 1 101.186 102.36 100.251
108 54 1 100.834 101.59 101.056
109 55 1 102.821 97.7525 102.125
110 55 1 102.63 98.6862 102.815
111 56 1 102.693 99.2176 98.6113
112 56 1 101.545 98.8102 98.4986
113 57 1 101.523 98.7967 97.0728
114 57 1 102.401 98.4674 97.9007
115 58 1 102.341 97.3315 97.837
116 58 1 97.1375 97.8265 97.221
117 59 1 99.3095 98.3452 98.4187
118 59 1 100.217 98.5154 97.6045
119 60 1 98.0337 98.2132 99.6784
120 60 1 98.1858 98.6467 100.832
121 61 1 102.164 100.598 102.343
122 61 1 102.054 99.4566 102.305
123 62 1 102.604 97.0961 98.9989
124 62 1 97.3848 102.233 99.2077
125 63 1 102.057 101.998 100.864
126 63 1 101.899 97.1841 100.729
127 64 1 100.411 98.5754 98.6246
128 64 1 101.045 99.2244 99.373
129 65 1 99.307 99.9192 100.114
130 65 1 100.041 100.717 99.5435
131 66 1 101.129 98.1555 99.358
132 66 1 99.9647 97.8389 99.3151
133 67 1 102.462 98.9915 100.484
134 67 1 101.627 99.7912 100.388
135 68 1 98.7466 97.6616 99.176
136 68 1 98.9142 97.3627 98.0232
137 69 1 98.7934 100.569 100.949
138 69 1 98.7708 100.04 102.016
139 70 1 99.6668 99.4052 97.9424
140 70 1 99.6035 99.8661 99.0503
141 71 1 100.326 100.262 97.3193
142 71 1 99.1305 100.188 97.3257
143 72 1 100.161 102.184 97.0657
144 72 1 100.688 102.381 98.1526
145 73 1 100.311 99.7609 99.9356
146 73 1 100.403 98.5974 99.9723
147 74 1 98.6637 99.0338 99.9881
148 74 1 98.8444 99.4792 101.093
149 75 1 100.788 99.9091 102.063
150 75 1 100.686 99.4434 100.988
151 76 1 100.357 100.817 101.745
152 76 1 100.752 100.481 100.698
153 77 1 100.63 99.9975 98.6635
154 77 1 99.7072 100.542 98.1703
155 78 1 101.678 102.726 98.4246
156 78 1 101.634 97.2259 99.5261
157 79 1 101.175 102.141 99.1533
158 79 1 100.329 102.806 99.6794
159 80 1 101.68 102.297 102.512
160 80 1 101.688 101.394 101.703
161 81 2 99.9558 101.079 102.689
162 82 2 98.5049 102.439 99.0132
163 83 2 102.316 102.298 99.8734
164 84 2 98.9613 101.756 100.787
165 85 2 101.447 98.0977 101.186
166 86 2 102.977 102.521 98.1697
167 87 2 102.879 99.062 101.761
168 88 2 99.649 102.954 101.964
169 89 2 97.9661 97.2579 100.341
170 90 2 100.116 101.882 99.1508
171 91 2 97.2677 100.448 100.508
172 92 2 99.6475 102.457 97.9364
173 93 2 98.5945 102.663 101.905
174 94 2 101.611 100.251 101.526
175 95 2 98.5178 98.9516 97.7524
176 96 2 102.928 98.2206 99.3348
177 97 2 97.4369 98.8999 97.7007
178 98 2 101.394 99.936 97.0742
179 99 2 103 101.28 99.293
180 100 2 101.189 97.9343 97.9449
181 101 2 102.163 102.18 97.5946
182 102 2 99.6265 98.9224 99.3734
183 103 2 102.314 101.982 98.8648
184 104 2 101.077 100.9 102.639
185 105 2 101.569 101.56 98.2303
186 106 2 99.8487 97.6822 100.406
187 107 2 99.8336 101.045 100.653
188 108 2 97.7675 97.4416 102.262
189 109 2 97.8331 99.3826 101.753
190 110 2 100.902 99.3925 97.8648
191 111 2 97.7403 99.7059 98.6025
192 112 2 101.657 97.4131 102.006
193 113 2 97.3855 101.26 102.21
194 114 2 101.226 100.405 99.6111
195 115 2 99.2975 101.421 97.4525
196 116 2 99.0887 100.803 99.1208
197 117 2 102.959 100.74 103.022
198 118 2 99.7767 100.036 102.352
199 119 2 99.7585 99.0645 101.684
200 120 2 101.351 98.7574 100.36
ITEM: TIMESTEP
3000
ITEM: NUMBER OF ATOMS
200
ITEM: BOX BOUNDS pp pp pp
9.6934712486573034e+01 1.0306528751342697e+02
9.7025305423552794e+01 1.0297469457644721e+02
9.7025305423552794e+01 1.0297469457644721e+02
ITEM: ATOMS id mol type x y z
1 1 1 102.437 99.8629 100.952
2 1 1 102.712 99.692 99.7887
3 2 1 102.435 100.906 101.181
4 2 1 102.563 101.556 102.201
5 3 1 98.4894 101.14 98.0943
6 3 1 98.7747 99.9794 98.3402
7 4 1 100.714 101.836 102.178
8 4 1 99.8045 101.964 101.444
9 5 1 99.7225 100.056 101.123
10 5 1 99.3243 100.978 101.728
11 6 1 102.237 99.4142 97.7642
12 6 1 96.9886 100.17 97.8033
13 7 1 98.9934 97.737 102.286
14 7 1 99.0572 102.8 97.109
15 8 1 102.229 100.592 100.112
16 8 1 101.99 100.896 98.9746
17 9 1 101.018 100.643 97.9583
18 9 1 101.047 101.686 97.3122
19 10 1 102.834 101.402 100.268
20 10 1 101.733 101.521 99.7378
21 11 1 102.03 101.221 97.1727
22 11 1 96.9294 101.874 97.1275
23 12 1 97.4937 98.2848 101.559
24 12 1 98.4322 97.5902 101.264
25 13 1 97.8562 101.231 100.607
26 13 1 97.0253 101.806 101.252
27 14 1 100.429 102.911 100.982
28 14 1 99.8827 102.153 100.281
29 15 1 99.2024 101.742 99.6062
30 15 1 98.1113 101.371 99.2017
31 16 1 101.356 102.442 101.467
32 16 1 100.824 102.877 102.425
33 17 1 97.1316 99.614 102.778
34 17 1 97.6246 98.5638 102.564
35 18 1 102.171 97.9984 100.179
36 18 1 97.2087 98.2201 100.454
37 19 1 102.734 102.886 102.814
38 19 1 102.504 102.606 101.663
39 20 1 102.012 97.8642 98.7401
40 20 1 100.899 97.305 98.8763
41 21 1 98.2923 97.9004 97.1528
42 21 1 97.6431 102.768 97.2188
43 22 1 97.0451 97.7286 98.3471
44 22 1 97.5231 98.6596 98.7774
45 23 1 97.6852 101.805 98.3261
46 23 1 97.9035 97.0453 98.2252
47 24 1 101.978 98.376 102.051
48 24 1 100.893 98.8196 101.913
49 25 1 100.681 101.468 99.9446
50 25 1 101.514 101.129 100.69
51 26 1 97.6306 97.3575 99.2051
52 26 1 103.008 97.3058 100.15
53 27 1 102.069 97.8914 102.984
54 27 1 101.331 102.989 97.4055
55 28 1 97.2756 97.2411 101.219
56 28 1 97.2215 102.317 100.382
57 29 1 102.829 101.353 98.0657
58 29 1 102.057 100.473 97.9589
59 30 1 98.5677 102.286 97.9098
60 30 1 98.2047 101.934 102.819
61 31 1 97.2799 99.205 100.856
62 31 1 97.4967 99.2011 99.6864
63 32 1 98.3223 101.46 101.657
64 32 1 99.215 101.899 102.344
65 33 1 98.2557 99.4137 102.729
66 33 1 98.6261 98.6361 101.876
67 34 1 99.2866 98.1257 97.3897
68 34 1 100.092 97.5829 98.1675
69 35 1 97.8071 100.492 101.433
70 35 1 98.066 99.8918 100.435
71 36 1 98.0345 102.426 101.058
72 36 1 97.4108 102.431 102.116
73 37 1 99.2134 102.801 101.01
74 37 1 99.4841 97.9633 101.366
75 38 1 98.7053 100.979 102.653
76 38 1 97.6388 101.091 97.3844
77 39 1 99.2326 101.787 98.5694
78 39 1 99.4402 102.938 98.9222
79 40 1 100.512 97.6892 101.788
80 40 1 99.9617 98.3433 102.546
81 41 1 100.041 97.3303 97.1317
82 41 1 100.97 98.015 102.736
83 42 1 100.879 101.119 98.9671
84 42 1 100.228 101.458 98.022
85 43 1 100.948 97.6734 100.163
86 43 1 100.457 98.3831 101.006
87 44 1 101.797 99.0388 101.24
88 44 1 102.612 98.0605 101.178
89 45 1 99.3379 99.1713 102.729
90 45 1 100.523 99.2086 102.892
91 46 1 101.787 99.799 98.7869
92 46 1 102.075 98.8737 99.474
93 47 1 98.8708 98.0385 100.229
94 47 1 99.5924 98.8707 100.541
95 48 1 98.5633 98.9072 98.9182
96 48 1 98.1422 98.1068 98.1536
97 49 1 97.8054 100.349 102.518
98 49 1 102.96 100.206 101.845
99 50 1 98.4903 99.9116 99.3472
100 50 1 98.6772 100.931 99.9944
101 51 1 98.0812 100.121 97.5639
102 51 1 97.5921 100.749 98.4842
103 52 1 97.5736 100.285 99.5698
104 52 1 102.802 100.252 98.8124
105 53 1 99.0323 102.857 99.9086
106 53 1 98.208 102.065 99.9901
107 54 1 101.255 102.449 100.217
108 54 1 100.726 101.727 100.995
109 55 1 102.91 97.7812 102.213
110 55 1 102.675 98.7691 102.816
111 56 1 102.733 99.1813 98.6977
112 56 1 101.586 98.8131 98.4478
113 57 1 101.565 98.7873 97.189
114 57 1 102.473 98.3774 97.8943
115 58 1 102.37 97.315 97.82
116 58 1 97.1621 97.8577 97.2522
117 59 1 99.3909 98.3996 98.4311
118 59 1 100.277 98.4811 97.6465
119 60 1 97.9826 98.2583 99.6953
120 60 1 98.1621 98.6445 100.855
121 61 1 102.03 100.568 102.222
122 61 1 101.827 99.431 102.227
123 62 1 102.653 97.1195 99.0302
124 62 1 97.3646 102.258 99.2251
125 63 1 102.119 101.963 100.897
126 63 1 102.024 97.1094 100.749
127 64 1 100.374 98.8151 98.7033
128 64 1 101.056 99.3221 99.4738
129 65 1 99.2459 99.9171 100.115
130 65 1 100.043 100.643 99.5397
131 66 1 101.156 98.2454 99.2494
132 66 1 99.9622 97.874 99.2777
133 67 1 102.511 98.8977 100.463
134 67 1 101.602 99.7017 100.318
135 68 1 98.7033 97.696 99.1803
136 68 1 98.8971 97.412 98.0735
137 69 1 98.7492 100.574 100.941
138 69 1 98.7148 100.083 101.996
139 70 1 99.6726 99.3599 97.8895
140 70 1 99.626 99.8079 98.9603
141 71 1 100.339 100.206 97.2244
142 71 1 99.1508 100.198 97.2975
143 72 1 100.126 102.199 97.027
144 72 1 100.737 102.417 98.091
145 73 1 100.259 99.7076 100.034
146 73 1 100.398 98.5658 99.9417
147 74 1 98.6059 99.0721 100.008
148 74 1 98.8414 99.4839 101.113
149 75 1 100.805 99.9038 102.095
150 75 1 100.703 99.4304 101
151 76 1 100.373 100.906 101.731
152 76 1 100.718 100.441 100.695
153 77 1 100.654 100.021 98.7393
154 77 1 99.7862 100.496 98.1003
155 78 1 101.721 102.757 98.4381
156 78 1 101.708 97.2646 99.565
157 79 1 101.173 102.217 99.1458
158 79 1 100.359 102.874 99.6726
159 80 1 101.739 102.204 102.551
160 80 1 101.553 101.373 101.708
161 81 2 99.9628 101.07 102.732
162 82 2 98.4503 102.433 99.0116
163 83 2 102.395 102.319 99.9169
164 84 2 98.9359 101.735 100.696
165 85 2 101.461 97.9581 101.187
166 86 2 103.033 102.501 98.1266
167 87 2 102.819 99.0993 101.805
168 88 2 99.6943 102.894 101.982
169 89 2 97.9764 97.2532 100.296
170 90 2 100.133 102.028 99.07
171 91 2 97.1547 100.397 100.613
172 92 2 99.6905 102.497 97.953
173 93 2 98.5794 102.689 101.96
174 94 2 101.502 100.198 101.35
175 95 2 98.5562 98.9835 97.7192
176 96 2 102.976 98.1596 99.3831
177 97 2 97.4116 98.9216 97.6506
178 98 2 101.473 99.9715 97.0918
179 99 2 103.047 101.23 99.2525
180 100 2 101.244 97.929 97.939
181 101 2 102.118 102.169 97.6008
182 102 2 99.5574 98.9014 99.4384
183 103 2 102.374 102.033 98.8602
184 104 2 101.054 100.839 102.651
185 105 2 101.569 101.577 98.2494
186 106 2 99.8221 97.6645 100.419
187 107 2 99.8103 101.067 100.648
188 108 2 97.7991 97.4391 102.282
189 109 2 97.7743 99.4015 101.757
190 110 2 100.92 99.4672 97.8903
191 111 2 97.6742 99.6896 98.567
192 112 2 101.801 97.3757 102.115
193 113 2 97.4671 101.313 102.239
194 114 2 101.252 100.475 99.6702
195 115 2 99.2892 101.434 97.4599
196 116 2 99.1126 100.762 99.006
197 117 2 102.947 100.678 102.812
198 118 2 99.773 100.04 102.247
199 119 2 99.7596 99.0129 101.651
200 120 2 101.36 98.6902 100.327
ITEM: TIMESTEP
4000
ITEM: NUMBER OF ATOMS
200
ITEM: BOX BOUNDS pp pp pp
9.6903905834902091e+01 1.0309609416509791e+02
9.7025305423552794e+01 1.0297469457644721e+02
9.7025305423552794e+01 1.0297469457644721e+02
ITEM: ATOMS id mol type x y z
1 1 1 102.499 99.8947 100.938
2 1 1 102.799 99.6866 99.7698
3 2 1 102.632 100.967 101.265
4 2 1 102.542 101.779 102.095
5 3 1 98.513 101.081 98.0679
6 3 1 98.8185 99.9586 98.3404
7 4 1 100.718 101.774 102.175
8 4 1 99.8443 101.959 101.375
9 5 1 99.805 100.088 101.116
10 5 1 99.3467 101.052 101.675
11 6 1 102.224 99.437 97.7384
12 6 1 97.0056 100.062 97.861
13 7 1 98.9685 97.7379 102.299
14 7 1 99.0087 102.766 97.0496
15 8 1 102.329 100.557 99.928
16 8 1 101.979 100.916 98.8834
17 9 1 101.015 100.673 97.9165
18 9 1 101.057 101.682 97.2844
19 10 1 102.829 101.406 100.322
20 10 1 101.755 101.543 99.7464
21 11 1 102.018 101.275 97.1151
22 11 1 96.9207 101.879 97.1281
23 12 1 97.4648 98.2875 101.606
24 12 1 98.4207 97.6765 101.235
25 13 1 97.79 101.309 100.726
26 13 1 96.9442 101.937 101.256
27 14 1 100.43 102.882 101.009
28 14 1 99.9744 102.043 100.281
29 15 1 99.0978 101.709 99.6239
30 15 1 98.0192 101.39 99.0848
31 16 1 101.331 102.44 101.476
32 16 1 100.819 102.798 102.505
33 17 1 97.1018 99.6282 102.849
34 17 1 97.7013 98.5918 102.621
35 18 1 102.166 97.9635 100.129
36 18 1 97.2042 98.2454 100.525
37 19 1 102.672 102.82 102.762
38 19 1 102.474 102.708 101.602
39 20 1 102.007 97.8543 98.7946
40 20 1 100.893 97.3113 98.8346
41 21 1 98.188 97.8425 97.2463
42 21 1 97.5306 102.761 97.2422
43 22 1 97.0345 97.7411 98.3464
44 22 1 97.5488 98.7006 98.85
45 23 1 97.6154 101.859 98.2242
46 23 1 97.8749 97.0756 98.2187
47 24 1 102.01 98.363 102.063
48 24 1 100.92 98.8038 101.928
49 25 1 100.744 101.361 99.9666
50 25 1 101.672 100.988 100.658
51 26 1 97.5549 97.3778 99.2597
52 26 1 103.003 97.3448 100.185
53 27 1 102.039 97.8817 102.995
54 27 1 101.36 102.996 97.4153
55 28 1 97.2274 97.1992 101.169
56 28 1 97.1605 102.312 100.291
57 29 1 102.844 101.376 98.026
58 29 1 102.129 100.511 97.8173
59 30 1 98.5466 102.251 97.8522
60 30 1 98.1395 101.974 102.717
61 31 1 97.2419 99.3248 100.926
62 31 1 97.5284 99.2192 99.8055
63 32 1 98.3324 101.501 101.671
64 32 1 99.2723 101.965 102.347
65 33 1 98.3631 99.4301 102.689
66 33 1 98.6891 98.6721 101.857
67 34 1 99.2641 98.0669 97.3649
68 34 1 100.057 97.5521 98.1449
69 35 1 97.8245 100.481 101.474
70 35 1 98.1171 99.9156 100.451
71 36 1 97.9266 102.355 101.034
72 36 1 97.3461 102.472 102.09
73 37 1 99.2512 102.849 100.978
74 37 1 99.4635 97.9969 101.402
75 38 1 98.7094 101.041 102.597
76 38 1 97.6881 101.184 97.3764
77 39 1 99.1733 101.804 98.5621
78 39 1 99.4936 102.904 98.9103
79 40 1 100.569 97.5983 101.823
80 40 1 99.9398 98.2616 102.514
81 41 1 100.031 97.2738 97.1247
82 41 1 100.942 97.9529 102.785
83 42 1 100.861 101.11 98.896
84 42 1 100.243 101.464 97.9246
85 43 1 100.97 97.6515 100.19
86 43 1 100.486 98.3138 101.053
87 44 1 101.877 99.0193 101.224
88 44 1 102.632 98.042 101.205
89 45 1 99.4353 99.1837 102.872
90 45 1 100.623 99.1486 102.896
91 46 1 101.788 99.8211 98.7176
92 46 1 102.035 98.9153 99.4884
93 47 1 98.8748 97.9788 100.304
94 47 1 99.6369 98.845 100.61
95 48 1 98.576 98.9961 98.8906
96 48 1 98.146 98.1242 98.2338
97 49 1 97.815 100.414 102.565