LAMMPS (23 Jun 2022)
OMP_NUM_THREADS environment is not set. Defaulting to 1 thread. (src/comm.cpp:98)
  using 1 OpenMP thread(s) per MPI task
Reading data file ...
  orthogonal box = (96.956624 96.956624 96.956624) to (103.04338 103.04338 103.04338)
  2 by 2 by 3 MPI processor grid
  reading atoms ...
  200 atoms
  scanning bonds ...
  4 = max bonds/atom
  reading bonds ...
  224 bonds
Finding 1-2 1-3 1-4 neighbors ...
  special bond factors lj:    0        0        0       
  special bond factors coul:  0        0        0       
     4 = max # of 1-2 neighbors
     4 = max # of 1-3 neighbors
    10 = max # of 1-4 neighbors
    12 = max # of special neighbors
  special bonds CPU = 0.001 seconds
  read_data CPU = 0.006 seconds
Finding 1-2 1-3 1-4 neighbors ...
  special bond factors lj:    0        1        1       
  special bond factors coul:  0        0        0       
     4 = max # of 1-2 neighbors
     4 = max # of 1-3 neighbors
    10 = max # of 1-4 neighbors
    12 = max # of special neighbors
  special bonds CPU = 0.000 seconds
Generated 0 of 1 mixed pair_coeff terms from geometric mixing rule
Neighbor list info ...
  update every 1 steps, delay 0 steps, check yes
  max neighbors/atom: 2000, page size: 100000
  master list distance cutoff = 5.5
  ghost atom cutoff = 5.5
  binsize = 2.75, bins = 3 3 3
  1 neighbor lists, perpetual/occasional/extra = 1 0 0
  (1) pair lj/cut, perpetual
      attributes: half, newton on
      pair build: half/bin/newton
      stencil: half/bin/3d
      bin: standard
WARNING: Proc sub-domain size < neighbor skin, could lead to lost atoms (src/domain.cpp:970)
Setting up Verlet run ...
  Unit style    : lj
  Current step  : 0
  Time step     : 0.002
WARNING: Inconsistent image flags (src/domain.cpp:819)
Per MPI rank memory allocation (min/avg/max) = 8.435 | 8.436 | 8.438 Mbytes
   Step          Temp         Density         PotEng        Enthalpy        Press           Pxx            Pyy            Pzz            Pxy            Pxz            Pyz             Lx             Ly             Lz             Xy             Yz             Xz          Density    
         0   1.5            0.97558693    -4.3381554      1.7673842      3.429445       2.9809177      3.6706406      3.6367766     -0.32971352     0.27017221     0.22719874     6.0867515      6.0867515      6.0867515      0              0              0              0.97558693   
      1000   1.3086513      0.80337978    -2.8162608      0.2818341      0.83619623     0.08463269     0.9427914      1.4811646      0.0079549347  -0.18151975     0.084087031    6.4938252      6.4938252      6.4938252      0              0              0              0.80337978   
      2000   1.5692017      0.76462632    -2.8112702      1.2294101      1.1807546      1.0277924      1.1377635      1.3767079     -0.1820346     -0.2491008      0.22805685     6.6017308      6.6017308      6.6017308      0              0              0              0.76462632   
      3000   1.5575373      0.79617445    -2.7031483      1.2480687      1.1773196      1.7702825      0.80154902     0.96012713    -0.15123853    -0.49645419     0.37240774     6.513356       6.513356       6.513356       0              0              0              0.79617445   
      4000   1.4353793      0.80901649    -2.7786721      0.68625193     0.97274705     0.51585026     1.2278741      1.1745168      0.97871785     0.27095776     0.59673969     6.4787084      6.4787084      6.4787084      0              0              0              0.80901649   
      5000   1.3969305      0.77410808    -2.923063      -0.057348501    0.549473       0.16812804     0.61441164     0.86587932    -0.11921935    -0.14006004    -0.67972203     6.574666       6.574666       6.574666       0              0              0              0.77410808   
      6000   1.4635131      0.80179798    -2.8949158      0.95208014     1.2119559      1.1874474      0.430446       2.0179744      0.12413155     0.23556825    -0.23513485     6.4980928      6.4980928      6.4980928      0              0              0              0.80179798   
      7000   1.6253544      0.7958027     -2.8592183      0.57701344     0.73097389     0.66558202     0.78712726     0.74021237     0.64070485    -0.18020887     0.21169462     6.51437        6.51437        6.51437        0              0              0              0.7958027    
      8000   1.3297489      0.80242166    -2.7632078      0.54975036     0.96896644     0.28031112     1.3579523      1.2686359     -0.022558165   -0.013461733    0.75436032     6.4964088      6.4964088      6.4964088      0              0              0              0.80242166   
      9000   1.3564351      0.79473496    -2.9215081      0.66527659     1.1287442      0.41408084     1.6183116      1.3538402     -0.069423693    0.59721147     0.17353849     6.5172861      6.5172861      6.5172861      0              0              0              0.79473496   
     10000   1.4070905      0.80915487    -3.0996205      1.0256601      1.4897262      1.2283678      2.1139144      1.1268964     -0.4776008      0.28063687     0.32509265     6.4783391      6.4783391      6.4783391      0              0              0              0.80915487   
     11000   1.374744       0.80957534    -2.9234926      0.36728791     0.91185793     0.97787859     1.2377296      0.51996557    -0.27207988     0.21126276    -0.94092283     6.4772173      6.4772173      6.4772173      0              0              0              0.80957534   
     12000   1.4912992      0.77338656    -2.7499459      1.1655783      1.1880344      1.2049539      1.2753896      1.0837596      0.31085759     0.11797518    -0.41593565     6.5767099      6.5767099      6.5767099      0              0              0              0.77338656   
     13000   1.4873444      0.81084633    -2.8991627      0.94674212     1.1986102      0.78743161     1.5956925      1.2127066     -0.58385394    -0.023446626   -0.42130293     6.4738312      6.4738312      6.4738312      0              0              0              0.81084633   
     14000   1.4358586      0.83821182    -3.3509074      0.70764098     1.4596541      1.5025295      1.2319135      1.6445191     -0.50222098    -0.33022548    -0.18755635     6.402599       6.402599       6.402599       0              0              0              0.83821182   
     15000   1.428526       0.79938958    -2.9800067      0.10095341     0.68957166     0.8731384      0.54376808     0.65180851     0.068005207   -0.26993593     0.76394975     6.5046121      6.5046121      6.5046121      0              0              0              0.79938958   
     16000   1.3152775      0.84598855    -3.1421087      1.4638252      2.0325891      2.053628       2.1356736      1.9084657     -0.041861903   -0.25665163     0.23342579     6.3829199      6.3829199      6.3829199      0              0              0              0.84598855   
     17000   1.2161793      0.81415449    -3.1232087     -1.0753926      0.17220733    -0.074639108    0.20014404     0.39111705    -1.0100349      0.10258293    -0.051146255    6.465051       6.465051       6.465051       0              0              0              0.81415449   
     18000   1.1950508      0.80859451    -2.9088603     -0.21656955     0.66795598     0.55020144     0.70812368     0.74554282    -0.17608461    -0.032912356   -0.62824988     6.4798353      6.4798353      6.4798353      0              0              0              0.80859451   
     19000   1.4528025      0.83861719    -3.13452        1.5681486      1.9321441      2.5819322      1.8117847      1.4027155     -0.046959494   -0.13197809    -0.10345403     6.4015672      6.4015672      6.4015672      0              0              0              0.83861719   
     20000   1.2887278      0.8248082     -3.1547135     -0.17024052     0.79560001     0.5658529      1.3534964      0.46745079    -0.039373727   -0.34006411    -0.15987789     6.4370948      6.4370948      6.4370948      0              0              0              0.8248082    
     21000   1.2238455      0.81534647    -3.2495363     -1.2339306      0.14010342     0.51898678    -0.28985378     0.19117726    -0.16480401    -0.22351022     0.42426086     6.4618989      6.4618989      6.4618989      0              0              0              0.81534647   
     22000   1.3741384      0.84138144    -3.3438872     -0.50327258     0.60404539     0.871286       0.11530458     0.82554559     0.26434237    -0.064063965    0.22615036     6.394549       6.394549       6.394549       0              0              0              0.84138144   
     23000   1.4341225      0.8375679     -3.3361391      0.89092476     1.5888176      1.1537286      1.6772267      1.9354975     -0.22089778    -0.0062189555   0.14496504     6.4042393      6.4042393      6.4042393      0              0              0              0.8375679    
     24000   1.1736969      0.82041149    -3.0901047      0.51097216     1.3792865      1.4713186      1.3795735      1.2869674     -0.52723299    -0.41978722    -0.0034850775   6.4485734      6.4485734      6.4485734      0              0              0              0.82041149   
     25000   1.2433873      0.83144766    -3.2204119     -0.34464972     0.7709837      0.07414544     1.0993311      1.1394746      0.17850706    -0.038363735    0.32974451     6.4199147      6.4199147      6.4199147      0              0              0              0.83144766   
     26000   1.2702351      0.82975501    -3.0518711      0.021005359    0.88787598     0.49061159     1.1314629      1.0415534      0.12334973    -0.037490797   -0.46084629     6.4242771      6.4242771      6.4242771      0              0              0              0.82975501   
     27000   1.2235782      0.84437689    -3.2711621      0.16014509     1.2321123      1.7561069      1.7259811      0.21424888     0.32844104    -0.2913231     -0.020889649    6.3869784      6.3869784      6.3869784      0              0              0              0.84437689   
     28000   1.2100488      0.84782762    -3.4170342     -1.0569505      0.42706301     0.56196822     0.79024664    -0.071025808    0.053441234   -0.34400218     0.65472032     6.3783014      6.3783014      6.3783014      0              0              0              0.84782762   
     29000   1.2577302      0.82138538    -3.2756068     -0.49177197     0.67702509     0.83559422     0.8124595      0.38302155     0.51244923    -0.42886734    -0.24775349     6.4460238      6.4460238      6.4460238      0              0              0              0.82138538   
     30000   1.1625018      0.85089862    -3.4042526     -0.46587269     0.9308413      1.3488271      0.75211774     0.69157906     0.3707262     -0.020910704   -0.66881444     6.3706188      6.3706188      6.3706188      0              0              0              0.85089862   
     31000   1.0298619      0.8502698     -3.3016273     -1.0747375      0.53321263     0.9897952      0.94093057    -0.33108788    -0.59420368    -0.11984247    -0.45517257     6.3721889      6.3721889      6.3721889      0              0              0              0.8502698    
     32000   1.2030161      0.84726284    -3.5031506      0.45085826     1.6625664      1.2666031      1.8543028      1.8667932      0.33549086    -0.13140949    -0.59376543     6.3797184      6.3797184      6.3797184      0              0              0              0.84726284   
     33000   1.1563315      0.8710455     -3.4808274     -0.65389304     0.87192408     1.2139884      1.032371       0.3694128      0.58552161     0.035567183   -0.1524202      6.3211187      6.3211187      6.3211187      0              0              0              0.8710455    
     34000   1.1144196      0.8436978     -3.3725292     -0.57404956     0.87070252     1.121374       0.33285444     1.1578792      0.59886714    -0.16809758     0.45339986     6.3886916      6.3886916      6.3886916      0              0              0              0.8436978    
     35000   1.1500473      0.85101076    -3.2787146      0.96580367     1.9558337      0.72745405     2.7466911      2.3933561      0.031555406    0.16300129    -0.26258222     6.370339       6.370339       6.370339       0              0              0              0.85101076   
     36000   1.1118868      0.86066761    -3.3572989      0.074130236    1.3864088      1.6389871      2.1676045      0.35263483     0.5922284     -0.28549398    -0.38271527     6.3464239      6.3464239      6.3464239      0              0              0              0.86066761   
     37000   1.0724479      0.84044036    -3.4070211     -0.78631885     0.77937378     0.27997633     0.88388913     1.1742559      0.32790926    -0.64162483    -0.36230091     6.3969348      6.3969348      6.3969348      0              0              0              0.84044036   
     38000   1.2150702      0.85474153    -3.6941894     -1.2142315      0.51786902    -0.30428525     0.91661574     0.94127656     0.40958828     0.42335224    -0.45453564     6.3610571      6.3610571      6.3610571      0              0              0              0.85474153   
     39000   1.0905376      0.88290533    -3.6624959     -0.39034646     1.3199612      1.1846456      2.5148482      0.26038977    -0.44809449     0.055957175    0.046718958    6.2926877      6.2926877      6.2926877      0              0              0              0.88290533   
     40000   1.1647043      0.84946917    -3.3493865      0.34654287     1.5117526      2.2125876      1.2440684      1.0786018     -0.50864684     0.92207702     0.1096396      6.3741902      6.3741902      6.3741902      0              0              0              0.84946917   
     41000   1.1519729      0.89169097    -3.7511164     -0.60025116     1.1604512      0.36154596     1.2535255      1.8662823     -0.18359857    -0.28779898     0.35613239     6.2719527      6.2719527      6.2719527      0              0              0              0.89169097   
     42000   0.99718119     0.86856968    -3.5709409     -1.5666926      0.40740293     0.12587344     0.36130728     0.73502806    -0.03136528    -0.058115244   -0.26811981     6.327119       6.327119       6.327119       0              0              0              0.86856968   
     43000   1.1217887      0.85850048    -3.5420826      0.29267557     1.6861641      1.9871546      1.8842833      1.1870542      0.24076676     0.42905568    -0.11829801     6.3517595      6.3517595      6.3517595      0              0              0              0.85850048   
     44000   1.0691073      0.88835675    -3.6883506     -0.019620246    1.6742195      1.3781705      1.8278051      1.816683       0.056181102    0.89280252    -0.25882079     6.2797896      6.2797896      6.2797896      0              0              0              0.88835675   
     45000   1.0852292      0.88795406    -3.7658149     -0.65195545     1.2061281      1.802757       0.44709652     1.3685307     -0.32451403     0.16377166     0.68248315     6.2807387      6.2807387      6.2807387      0              0              0              0.88795406   
     46000   0.99749862     0.8617274     -3.7788839     -2.1122983      0.13930128    -0.049483452   -0.32630548     0.79369278    -0.3418531      0.039008135    0.21028861     6.3438211      6.3438211      6.3438211      0              0              0              0.8617274    
     47000   0.98530149     0.87660413    -3.7799057     -1.314056       0.79315721     0.82117971     0.4382896      1.1200023      0.023043898   -0.048644874    0.7681697      6.3077294      6.3077294      6.3077294      0              0              0              0.87660413   
     48000   1.0671962      0.87956554    -3.8045263     -1.0321633      0.94319221     0.75629634     0.42288891     1.6503914      0.25273663    -0.19567644     0.14098827     6.3006423      6.3006423      6.3006423      0              0              0              0.87956554   
     49000   0.99947196     0.90391539    -3.9100265     -1.0051074      1.1612907      1.027098       1.3325235      1.1242506      0.20589192     0.73179034    -0.15915582     6.2435506      6.2435506      6.2435506      0              0              0              0.90391539   
     50000   0.91208478     0.89407421    -3.8721243     -0.88120554     1.3245565      1.6075341      0.98388577     1.3822497     -0.76581026    -0.78117025    -0.013057405    6.2663749      6.2663749      6.2663749      0              0              0              0.89407421   
     51000   0.9614047      0.87945837    -3.7975096     -1.4417185      0.73626225     0.48191262     0.095220139    1.631654       0.25595825    -0.48245873     0.32529639     6.3008982      6.3008982      6.3008982      0              0              0              0.87945837   
     52000   1.0271455      0.88127053    -3.69385       -0.29314708     1.4963078      1.6113866      1.6281638      1.249373      -0.48495895    -0.71942449    -0.20073499     6.2965764      6.2965764      6.2965764      0              0              0              0.88127053   
     53000   0.89226466     0.89998041    -3.8623689     -0.24942967     1.8664237      2.1480965      2.2677466      1.1834281      0.40140703    -0.12006999     0.66008632     6.2526369      6.2526369      6.2526369      0              0              0              0.89998041   
     54000   1.0529952      0.85936906    -3.7172389     -1.4434865      0.5485564      0.62612214     0.91490106     0.10464601    -0.24117986    -0.27794764     0.14845532     6.3496188      6.3496188      6.3496188      0              0              0              0.85936906   
     55000   0.94952418     0.87353838    -3.5962618     -0.87683557     1.0341594      1.2336952      1.2458123      0.62297067     0.2722215      0.0048615253   0.041108345    6.3151         6.3151         6.3151         0              0              0              0.87353838   
     56000   0.91145533     0.88241385    -3.8570612     -1.0862001      1.1315065      0.97240432     1.8274194      0.59469587    -0.18491405    -0.052052693   -0.16513679     6.2938558      6.2938558      6.2938558      0              0              0              0.88241385   
     57000   0.95631861     0.88974113    -3.8761018     -1.4074783      0.84227583     1.2188892      0.67356318     0.63437512     0.052723942    0.16289034    -0.13140032     6.2765309      6.2765309      6.2765309      0              0              0              0.88974113   
     58000   0.9151417      0.90785913    -4.0184063     -0.74868336     1.5713176      1.1285819      1.5927818      1.9925892     -0.25209521    -0.29037038     0.54069875     6.2344968      6.2344968      6.2344968      0              0              0              0.90785913   
     59000   0.80405111     0.88823383    -3.928318      -2.340403       0.31319825    -0.11099848     0.76180122     0.28879202    -0.77220407     0.15505965     0.52876883     6.2800792      6.2800792      6.2800792      0              0              0              0.88823383   
     60000   0.90234283     0.90560881    -4.0931441     -2.0687697      0.55787783     0.73953299     0.28319484     0.65090566    -0.17447552     0.53663082     0.39365333     6.2396565      6.2396565      6.2396565      0              0              0              0.90560881   
     61000   0.79260442     0.91402077    -4.2449823     -1.3847789      1.3936667      1.2778107      1.0927438      1.8104454     -0.139258       0.25312711     0.038031918    6.2204557      6.2204557      6.2204557      0              0              0              0.91402077   
     62000   0.90762708     0.91262833    -4.1212683     -1.69439        0.8896009      1.0472845      1.2870376      0.33448058    -0.091765272    0.53994609    -0.29893439     6.2236178      6.2236178      6.2236178      0              0              0              0.91262833   
     63000   0.91396357     0.92113347    -4.2724022     -1.6370415      1.0645541      0.81797485     0.9237803      1.4519071     -0.03837276     0.42747158    -0.51989537     6.2044036      6.2044036      6.2044036      0              0              0              0.92113347   
     64000   0.79902249     0.9146429     -4.2220467     -1.5873157      1.1991716      1.1392257      1.3689156      1.0893736     -0.17248285     0.19457983    -0.66088995     6.2190451      6.2190451      6.2190451      0              0              0              0.9146429    
     65000   0.88323696     0.90377857    -4.115955      -1.8115707      0.81024006     0.36415277    -0.12259782     2.1891652     -0.3473157     -0.18009807    -0.59782062     6.2438656      6.2438656      6.2438656      0              0              0              0.90377857   
     66000   0.92558943     0.92819957    -4.0692619     -0.66252864     1.7089766      2.5931804      0.78559135     1.7481581     -0.062626053   -0.64616922     0.53709169     6.1886194      6.1886194      6.1886194      0              0              0              0.92819957   
     67000   0.85617262     0.920846      -4.0421145     -0.82736129     1.6214554      1.9157022      1.2506459      1.6980182      0.19254326    -0.33195591    -0.11016836     6.2050491      6.2050491      6.2050491      0              0              0              0.920846     
     68000   0.79894393     0.91153579    -4.2246509     -1.4636153      1.2998598      1.0783389      1.4286338      1.3926066      0.26034687    -0.49749479    -0.037170241    6.2261032      6.2261032      6.2261032      0              0              0              0.91153579   
     69000   0.79781145     0.91447444    -4.1535206     -1.573368       1.1550802      0.62910278     1.1414084      1.6947292      0.2649521      0.80398475     0.20494533     6.2194269      6.2194269      6.2194269      0              0              0              0.91447444   
     70000   0.88957231     0.93346081    -4.278918      -0.72768109     1.8869064      2.4368275      1.7535501      1.4703415     -0.007655454    0.28280147    -0.12989597     6.1769706      6.1769706      6.1769706      0              0              0              0.93346081   
     71000   0.79306831     0.92330775    -4.2447727     -2.5154408      0.45802565     0.073351104    0.78751273     0.51321311    -0.4581749      0.23118898    -0.28861737     6.1995295      6.1995295      6.1995295      0              0              0              0.92330775   
     72000   0.73885843     0.93044751    -4.2944055     -2.4903628      0.59319965     0.82953763     0.042349721    0.90771159     0.16394512    -0.56101092    -0.19695289     6.1836315      6.1836315      6.1836315      0              0              0              0.93044751   
     73000   0.90198783     0.93906522    -4.4255535     -1.8985999      1.0079898      0.98237485     0.69468104     1.3469135     -0.19551723     0.61849141    -0.63112953     6.1646578      6.1646578      6.1646578      0              0              0              0.93906522   
     74000   0.78021709     0.93980544    -4.4466043     -2.4427661      0.71712638     0.36724144     0.1461404      1.6379973     -0.37401292    -0.10791383    -0.019195071    6.1630389      6.1630389      6.1630389      0              0              0              0.93980544   
     75000   0.74546347     0.93374602    -4.4062825     -2.5457641      0.63487448     0.24638408     0.7625861      0.89565326    -0.32807515    -0.39303268     0.02792692     6.1763416      6.1763416      6.1763416      0              0              0              0.93374602   
     76000   0.74334648     0.96201126    -4.5539688     -1.7018393      1.524075       0.49435612     2.5948378      1.483031      -0.17432918    -0.16192463     0.074855599    6.1152494      6.1152494      6.1152494      0              0              0              0.96201126   
     77000   0.7729272      0.95056433    -4.446766      -1.7203628      1.3591423      0.93171702     1.8962826      1.2494271     -0.19979001     0.91222101    -0.13646015     6.1396987      6.1396987      6.1396987      0              0              0              0.95056433   
     78000   0.73669932     0.94601089    -4.5076897     -2.0643639      1.1556831      1.4547489      0.22955296     1.7827473     -0.25755092     0.28071884    -0.038985594    6.1495336      6.1495336      6.1495336      0              0              0              0.94601089   
     79000   0.70841863     0.96429338    -4.6899385     -2.7413822      0.78128934     0.50972881     1.0616678      0.77247142     0.060905231   -0.10442449    -0.017875155    6.1104214      6.1104214      6.1104214      0              0              0              0.96429338   
     80000   0.72096952     0.96766099    -4.6670076     -2.5068058      0.95372208     1.0253679      0.46423519     1.3715632      0.4252881      0.11551151    -0.51868556     6.1033248      6.1033248      6.1033248      0              0              0              0.96766099   
     81000   0.67980466     0.95981841    -4.6036939     -1.9753882      1.4080512      0.88666075     1.7392705      1.5982225      0.30485143    -0.087386034    0.1954408      6.119903       6.119903       6.119903       0              0              0              0.95981841   
     82000   0.70309777     0.9727039     -4.6195441     -1.9127308      1.4656347      0.68811438     2.0568698      1.6519201     -0.22169639     0.69735464    -0.09702859     6.0927591      6.0927591      6.0927591      0              0              0              0.9727039    
     83000   0.64781873     0.95557331    -4.529438      -2.4609184      0.95700676     0.39773424     1.1919243      1.2813617     -0.040662185   -0.22937394    -0.21267084     6.128952       6.128952       6.128952       0              0              0              0.95557331   
     84000   0.642223       0.96321531    -4.6507511     -2.6664738      0.89820652     0.2413297      1.3366456      1.1166442     -0.43683389    -0.12821375     0.037350682    6.1127003      6.1127003      6.1127003      0              0              0              0.96321531   
     85000   0.64208776     0.96806143    -4.7668572     -2.9051551      0.79503023     1.2757574      0.05824531     1.051088      -0.1587457      0.022643821   -0.45137753     6.1024831      6.1024831      6.1024831      0              0              0              0.96806143   
     86000   0.61768589     0.94891754    -4.6227665     -2.7834904      0.79137997     0.23019337     1.1460088      0.99793777     0.27970969     0.095831651   -0.052015906    6.1432483      6.1432483      6.1432483      0              0              0              0.94891754   
     87000   0.65811494     0.97125166    -4.7474183     -2.4179245      1.189569       0.71882503     1.1562971      1.6935847     -0.15794907     0.54628295    -0.37868431     6.0957943      6.0957943      6.0957943      0              0              0              0.97125166   
     88000   0.56507391     0.9623251     -4.8528282     -4.01096       -0.0013163056  -0.81416278     0.30495437     0.50525949    -0.16322142    -0.06271004     0.079886515    6.1145846      6.1145846      6.1145846      0              0              0              0.9623251    
     89000   0.57352573     0.9734278     -4.7768601     -3.1068998      0.72031278     0.99769835     0.35599499     0.80724499    -0.46552862    -0.34911495     0.067807223    6.0912484      6.0912484      6.0912484      0              0              0              0.9734278    
     90000   0.6107226      0.98052689    -4.6828901     -2.1593909      1.4369138      1.1342998      1.9535749      1.2228666     -0.052750549    0.25414982    -0.4660722      6.0765124      6.0765124      6.0765124      0              0              0              0.98052689   
     91000   0.57077987     0.9761508     -4.7782146     -2.6396329      1.1418238      0.38076037     1.5670172      1.4776938      0.01215957    -0.042083382   -0.18321099     6.0855793      6.0855793      6.0855793      0              0              0              0.9761508    
     92000   0.57407352     0.9709391     -4.8350824     -3.4180933      0.49445901    -0.2853488      0.69657234     1.0721535      0.0055800221  -0.20366051    -0.1029114      6.0964483      6.0964483      6.0964483      0              0              0              0.9709391    
     93000   0.56475326     0.9842875     -4.8419855     -3.2269916      0.69088001     0.55323774     0.38181329     1.137589       0.3981136     -0.025522163    0.39050043     6.0687638      6.0687638      6.0687638      0              0              0              0.9842875    
     94000   0.57804409     0.97668322    -4.9014562     -2.9337217      0.98112602     0.60698981     0.7580402      1.578348       0.40931652    -0.35099541     0.14529165     6.0844732      6.0844732      6.0844732      0              0              0              0.97668322   
     95000   0.53463774     0.98092207    -4.9096099     -3.0570128      0.9404815      1.3360646      0.63512941     0.85025046     0.44525942    -0.46620043     0.0330595      6.0756963      6.0756963      6.0756963      0              0              0              0.98092207   
     96000   0.52142246     0.97499149    -4.9101202     -3.4345735      0.61807693     1.0530852     -0.16555295     0.96669858    -0.29786806    -0.12031432     0.11746839     6.0879903      6.0879903      6.0879903      0              0              0              0.97499149   
     97000   0.54608318     0.98741561    -4.964979      -3.6398174      0.4579206     -0.1181297      0.93974196     0.55214953     0.32764296    -0.16380027    -0.12841376     6.0623485      6.0623485      6.0623485      0              0              0              0.98741561   
     98000   0.55023218     0.99166907    -4.9260587     -2.2884886      1.6374697      0.78562182     1.8955608      2.2312265     -0.11065792    -0.075675276    0.044918269    6.0536685      6.0536685      6.0536685      0              0              0              0.99166907   
     99000   0.53311808     1.0078691     -5.0218034     -2.2711206      1.7912621      1.4191712      1.4693453      2.4852696      0.24639774    -0.63034917    -0.15364571     6.0210585      6.0210585      6.0210585      0              0              0              1.0078691    
    100000   0.51409926     1.0048467     -5.1036221     -3.1795529      1.0567115      0.68086611     0.68571105     1.8035573      0.76923494    -0.040099388    0.16543518     6.0270892      6.0270892      6.0270892      0              0              0              1.0048467    
    101000   0.47852181     0.99106793    -5.0976629     -4.1611818      0.20027433     0.72109997    -0.0060644291  -0.11421253     0.65671764    -0.20482915     0.17033464     6.0548922      6.0548922      6.0548922      0              0              0              0.99106793   
    102000   0.51860304     1.0057915     -5.1237774     -3.6102222      0.67620287     0.72674163     0.60726179     0.69460518     0.34662138    -0.25746643    -0.085155713    6.0252015      6.0252015      6.0252015      0              0              0              1.0057915    
    103000   0.50561667     1.0134452     -5.1116962     -2.5109312      1.700867       1.6668658      1.677518       1.7582171      0.40701848    -0.27623092     0.4739361      6.0099954      6.0099954      6.0099954      0              0              0              1.0134452    
    104000   0.40947038     1.0102062     -5.2239853     -3.6494405      0.88476647     1.3837171      0.30097825     0.96960403     0.40215105     0.24472558     0.13005537     6.0164117      6.0164117      6.0164117      0              0              0              1.0102062    
    105000   0.42916186     0.99659611    -5.1710014     -4.4233253      0.097079401   -0.18286533    -0.075484087    0.54958762     0.40651641     0.034065038    0.08086876     6.0436759      6.0436759      6.0436759      0              0              0              0.99659611   
    106000   0.43986968     1.0200152     -5.1366928     -2.5214715      1.8162908      1.5328182      1.8327777      2.0832766      0.15125483    -0.21009584    -0.27330258     5.9970639      5.9970639      5.9970639      0              0              0              1.0200152    
    107000   0.4143132      1.0103431     -5.10945       -3.5193334      0.89255008     1.323307       0.69734701     0.65699624     0.23681906    -0.068188951    0.20841199     6.01614        6.01614        6.01614        0              0              0              1.0103431    
    108000   0.38750298     1.0138097     -5.1890535     -3.3884085      1.126524       0.82545173     1.2318172      1.3223031     -0.17957872    -0.419481       0.20855086     6.0092749      6.0092749      6.0092749      0              0              0              1.0138097    
    109000   0.41140079     1.0067035     -5.24941       -3.5494158      0.99387126     1.3511811      0.67349111     0.95694159     0.1924325     -0.14838451    -0.33801771     6.0233814      6.0233814      6.0233814      0              0              0              1.0067035    
    110000   0.39873809     1.019112      -5.2930519     -3.6562296      0.96510435     0.96020368     0.69111894     1.2439904      0.41153447    -0.21363039    -0.3987466      5.9988351      5.9988351      5.9988351      0              0              0              1.019112     
    111000   0.40845814     1.0182328     -5.2405293     -3.8433651      0.72899951     0.88651058     0.59089391     0.70959403     0.65542152    -0.44444259    -0.28747922     6.0005612      6.0005612      6.0005612      0              0              0              1.0182328    
    112000   0.39371837     1.0200657     -5.2918398     -3.7110303      0.92101249     0.79999874     1.0779247      0.88511401     0.0041974754   0.18249053    -0.088132767    5.996965       5.996965       5.996965       0              0              0              1.0200657    
    113000   0.3621802      1.0117665     -5.282597      -3.9981161      0.68425488     0.84058902     0.65139622     0.56077939     0.23756841    -0.39022092    -0.67988967     6.0133174      6.0133174      6.0133174      0              0              0              1.0117665    
    114000   0.32420312     1.0217791     -5.3442292     -4.0898511      0.71571441     1.3134168      0.37112687     0.4625996      0.81453848    -0.13573685    -0.25769305     5.993611       5.993611       5.993611       0              0              0              1.0217791    
    115000   0.3583814      1.0170129     -5.3460158     -3.980675       0.76780456     0.6541636      1.2465261      0.40272397     0.21948164    -0.0844688      0.20908068     6.0029595      6.0029595      6.0029595      0              0              0              1.0170129    
    116000   0.34522717     1.0298772     -5.2986602     -3.1792283      1.5019171      1.4593984      1.8964375      1.1499155      0.86845426     0.18923518     0.015939       5.9778601      5.9778601      5.9778601      0              0              0              1.0298772    
    117000   0.34054501     1.0289472     -5.3913148     -3.6194345      1.1819954      0.82659425     1.3414092      1.3779827      0.27403124     0.19147658     0.30727176     5.9796606      5.9796606      5.9796606      0              0              0              1.0289472    
    118000   0.29954961     1.0170034     -5.3819757     -4.3779674      0.51490929     0.5730626      0.60603618     0.3656291     -0.0088080518  -0.090311217    0.017425051    6.0029781      6.0029781      6.0029781      0              0              0              1.0170034    
    119000   0.31080539     1.0261565     -5.3554287     -3.7354544      1.0784879      1.5432158      1.0099351      0.68231267     0.3857995      0.22057463    -0.7715629      5.9850763      5.9850763      5.9850763      0              0              0              1.0261565    
    120000   0.31847091     1.0305353     -5.4265665     -3.8377243      1.0432056      1.0975111      1.2123334      0.81977225     0.30141263     0.44676491     0.18293555     5.9765873      5.9765873      5.9765873      0              0              0              1.0305353    
    121000   0.28539272     1.0263742     -5.4531144     -4.1866502      0.78425778     1.0832007      0.78972131     0.47985134     0.25569734    -0.10863863     0.12549572     5.9846531      5.9846531      5.9846531      0              0              0              1.0263742    
    122000   0.28920694     1.0262567     -5.4488534     -4.2257034      0.7384464      0.75546381     0.65479528     0.80508012     0.41507382    -0.070647863    0.14767831     5.9848815      5.9848815      5.9848815      0              0              0              1.0262567    
    123000   0.23467419     1.0373442     -5.4648085     -3.9113557      1.1346675      1.4895172      1.4081925      0.50629267     0.17787877    -0.049960691    0.0094473854   5.9634822      5.9634822      5.9634822      0              0              0              1.0373442    
    124000   0.26074        1.033288      -5.4604269     -3.9669799      1.0373202      0.97544067     1.2637401      0.87277977     0.44429068    -0.057255264   -0.31517537     5.9712753      5.9712753      5.9712753      0              0              0              1.033288     
    125000   0.22200185     1.0376792     -5.5070714     -4.1668899      0.95168747     0.74024311     0.93272751     1.1820918      0.46594693    -0.058628273    0.11533456     5.9628404      5.9628404      5.9628404      0              0              0              1.0376792    
    126000   0.25621782     1.0312668     -5.5196886     -4.1548631      0.92103412     1.4706366      1.2350482      0.057417567    0.34500262    -0.17704778    -0.19220952     5.9751739      5.9751739      5.9751739      0              0              0              1.0312668    
    127000   0.20649051     1.0500769     -5.5272034     -3.2778868      1.8530321      2.259978       2.2142578      1.0848603      0.18946002    -0.23456742    -0.11326096     5.9392808      5.9392808      5.9392808      0              0              0              1.0500769    
    128000   0.23408131     1.0321034     -5.5332032     -4.4033002      0.73235866     1.2111188      0.38070858     0.60524859     0.37361641    -0.088765992   -0.086075751    5.9735589      5.9735589      5.9735589      0              0              0              1.0321034    
    129000   0.20291224     1.033875      -5.5558425     -4.4374941      0.76647919     0.8314226      0.87761101     0.59040395     0.022959439    0.039877503   -0.013855573    5.970145       5.970145       5.970145       0              0              0              1.033875     
    130000   0.22051394     1.0461136     -5.5565479     -3.8785782      1.2827755      1.5738129      1.4544964      0.82001727     0.75983267     0.17597236     0.076433735    5.9467718      5.9467718      5.9467718      0              0              0              1.0461136    
    131000   0.18877168     1.0451377     -5.5862549     -3.8774434      1.355895       2.0752354      1.4178982      0.57455138     0.1777785     -0.19008382    -0.20434154     5.9486222      5.9486222      5.9486222      0              0              0              1.0451377    
    132000   0.16892889     1.0408721     -5.5884211     -4.377784       0.90698829     1.3797953      1.1266389      0.21453066     0.70659122     0.083447989    0.21208193     5.9567372      5.9567372      5.9567372      0              0              0              1.0408721    
    133000   0.17522671     1.0430053     -5.6201218     -4.0406109      1.2496958      1.361337       1.5637404      0.82401001     0.57817982     0.050172079    0.020557644    5.9526733      5.9526733      5.9526733      0              0              0              1.0430053    
    134000   0.15541993     1.0507355     -5.6398197     -4.2290784      1.1259844      1.1854211      1.2074932      0.98503906     0.41423624    -0.13393241     0.024128251    5.9380397      5.9380397      5.9380397      0              0              0              1.0507355    
    135000   0.16929669     1.0432545     -5.638845      -4.7409038      0.61197873     0.75859519     0.79774921     0.27959177     0.4779105     -0.061962949    0.16086729     5.9521994      5.9521994      5.9521994      0              0              0              1.0432545    
    136000   0.14028765     1.0506426     -5.6621575     -4.2915526      1.109121       1.4562787      1.1507427      0.72034166     0.45246722    -0.30468299     0.13931985     5.9382146      5.9382146      5.9382146      0              0              0              1.0506426    
    137000   0.11983367     1.0527965     -5.6833524     -4.2508392      1.199864       1.4763113      1.3739073      0.74937323     0.42014312     0.11621954    -0.30597885     5.9341623      5.9341623      5.9341623      0              0              0              1.0527965    
    138000   0.13140116     1.0444383     -5.6998974     -4.7353031      0.72966174     1.0391587      0.84494549     0.30488102     0.35149819     0.00020891205  0.025592145    5.9499497      5.9499497      5.9499497      0              0              0              1.0444383    
    139000   0.1139685      1.051733      -5.7087516     -4.5030432      0.9901687      1.3811421      1.2629091      0.32645485     0.65089474     0.008341909    0.14217156     5.9361618      5.9361618      5.9361618      0              0              0              1.051733     
    140000   0.096222987    1.0594613     -5.7308619     -4.1949074      1.3410293      1.5769352      1.7371304      0.70902219     0.55097487    -0.018927196   -0.24121911     5.9216926      5.9216926      5.9216926      0              0              0              1.0594613    
Loop time of 15.7777 on 12 procs for 140000 steps with 200 atoms

Performance: 1533298.874 tau/day, 8873.257 timesteps/s
81.3% CPU use with 12 MPI tasks x 1 OpenMP threads

MPI task timing breakdown:
Section |  min time  |  avg time  |  max time  |%varavg| %total
---------------------------------------------------------------
Pair    | 2.8729     | 3.1747     | 3.4433     |  10.6 | 20.12
Bond    | 0.060518   | 0.067626   | 0.074456   |   1.4 |  0.43
Neigh   | 0.020682   | 0.020884   | 0.021025   |   0.1 |  0.13
Comm    | 9.8402     | 10.147     | 10.429     |   6.8 | 64.31
Output  | 0.014885   | 0.014982   | 0.015817   |   0.2 |  0.09
Modify  | 1.5327     | 1.5911     | 1.6404     |   2.6 | 10.08
Other   |            | 0.7618     |            |       |  4.83

Nlocal:        16.6667 ave          18 max          14 min
Histogram: 1 0 1 0 0 1 0 7 0 2
Nghost:        2350.33 ave        2385 max        2328 min
Histogram: 2 1 5 0 0 0 2 0 1 1
Neighs:        5355.08 ave        6325 max        4542 min
Histogram: 1 2 0 4 1 1 0 0 2 1

Total # of neighbors = 64261
Ave neighs/atom = 321.305
Ave special neighs/atom = 10.44
Neighbor list builds = 98
Dangerous builds = 0
System init for write_data ...
Generated 0 of 1 mixed pair_coeff terms from geometric mixing rule
WARNING: Proc sub-domain size < neighbor skin, could lead to lost atoms (src/domain.cpp:970)
WARNING: Not all mixed pair coeffs generated from mixing. Use write_data with 'pair ij' option to store all pair coeffs. (src/write_data.cpp:309)
Total wall time: 0:00:15
