LAMMPS data file via write_data, version 23 Jun 2022, timestep = 140000

200 atoms
2 atom types
203 bonds
2 bond types

97.03542055834382 102.96457944165618 xlo xhi
97.03542055834382 102.96457944165618 ylo yhi
97.03542055834382 102.96457944165618 zlo zhi

Masses

1 1
2 1.5

Pair Coeffs # lj/cut

1 1 1
2 1 1

Bond Coeffs # harmonic

1 100 1.2
2 100 1.2

Atoms # full

146 73 1 0 99.76341404722626 98.32949725723675 98.68737268588717 -1 -1 2
198 118 2 0 98.94617137887246 99.0369739203766 98.21432434161056 2 3 0
34 17 1 0 98.13311580461695 98.95299773325974 99.82722108550392 0 1 1
115 58 1 0 97.81047163043003 99.21849321850493 98.52326598699489 0 0 -1
87 44 1 0 99.14838595034493 97.42638932854793 98.47722763047048 1 1 0
192 112 2 0 97.40926735134184 99.8198923694805 99.32269856206395 0 4 0
116 58 1 0 98.12396135623729 98.9548335617425 97.46123546754286 0 0 -1
79 40 1 0 99.50408665986397 99.42468098522247 99.02371932174447 0 0 1
88 44 1 0 98.5653133782459 98.42651113789275 99.00456574307081 1 1 0
171 91 2 0 99.06754648494794 97.50179149617804 99.58064071417103 -1 0 -1
66 33 1 0 99.49878387847662 99.74516115781294 97.72820224072635 0 0 1
40 20 1 0 97.95170720751203 97.871047725286 99.73482266847103 0 1 1
181 101 2 0 97.41959375914811 98.20849220041612 98.24369453687876 1 0 0
131 66 1 0 98.11913478684203 97.43192639146629 98.79996069672086 -1 -1 -2
102 51 1 0 97.35009681678278 98.58552274459659 99.22283462229576 -1 -1 1
13 7 1 0 98.44163563989727 98.08047234933822 98.02146004941353 0 2 2
187 107 2 0 98.48500403336857 99.69707900431447 99.14165007928676 1 0 -1
130 65 1 0 98.86928311964705 97.14518646872041 97.46541914457708 -1 0 1
50 25 1 0 97.71012152845061 99.82949959054743 97.11348158773123 0 -1 2
135 68 1 0 97.82513073055019 97.31361626662732 97.73309748993358 2 0 0
14 7 1 0 99.54904108007298 97.99930818480486 97.64524074306196 0 2 2
191 111 2 0 102.95265820655811 99.09083831192943 97.78410501177788 0 0 0
39 20 1 0 102.90107411528825 97.58578967224715 99.00106151671685 -1 1 1
65 33 1 0 98.34552358851067 99.98011987580138 97.99875434197479 0 0 1
178 98 2 0 99.13707659301757 98.89540486053666 97.11290397193052 1 0 -1
72 36 1 0 99.96995840059985 102.93297386613698 99.03575644234876 -2 1 0
199 119 2 0 100.11833366304333 98.92278539082355 97.54139579932549 1 1 0
46 23 1 0 102.66310365443746 97.45265497309947 97.91667217787347 -1 1 0
145 73 1 0 100.14938204852166 97.81811538079414 99.71837610065722 -1 -1 2
80 40 1 0 100.5399936620877 99.23755108384226 98.5055542561901 0 0 1
42 21 1 0 101.93815100149408 99.46486644049487 98.19072204718947 -1 0 -1
67 34 1 0 100.96994868837754 102.92823317759519 98.55705226536267 1 -1 1
169 89 2 0 101.02387406784217 99.57491813023175 97.45123431651487 -1 2 -2
150 75 1 0 101.32841784694344 98.63663156459708 98.21986404775865 0 0 1
101 51 1 0 102.33171796592933 98.4099225116065 98.52939650706453 -1 -2 1
68 34 1 0 100.51282325284684 97.90692733968409 97.97481969404078 1 0 1
151 76 1 0 101.05651410317815 98.37056847080403 99.9930501237826 1 1 0
149 75 1 0 101.6090408444917 97.60120923651327 97.99373557947806 0 0 1
119 60 1 0 101.36605742930386 99.06860024783931 99.20560226669174 0 0 0
120 60 1 0 102.27647789765328 98.40912068778357 99.64180715939617 0 0 0
111 56 1 0 100.83282958898845 98.07258977902212 98.97010037868216 0 0 -1
3 2 1 0 101.77465980721664 97.68560992105814 99.11700702257612 -1 -1 2
112 56 1 0 100.27489175346386 98.90399829317191 99.52165482446757 0 0 -1
124 62 1 0 102.46380391472152 99.29107857744272 99.14804866641757 -2 1 -1
7 4 1 0 102.53818646593311 99.94248912918611 97.22473823524308 -3 1 1
71 36 1 0 100.97193557807731 97.16331633316483 99.58579382669362 -1 1 0
9 5 1 0 101.0680645382203 98.4011661759584 97.20108397418693 -1 0 1
35 18 1 0 100.43835879457183 99.92557635331052 99.35173474485627 -1 0 0
128 64 1 0 100.9064734006189 102.96141103904787 97.44377142078207 1 0 3
154 77 1 0 102.20330223273415 98.45874615665834 97.44439100645285 -2 0 -1
175 95 2 0 102.75443292899062 97.6044807353148 100.05379411560416 -1 0 2
56 28 1 0 97.59073101772341 102.75654735819933 99.5058779465052 1 -1 2
168 88 2 0 98.75632422871789 102.52951999020381 99.25848507478419 0 0 1
136 68 1 0 97.20057440621531 102.41471694552466 97.35007480429243 2 -1 0
129 65 1 0 99.42686455633022 102.04926964324251 97.39176740563562 -1 -1 1
30 15 1 0 97.23841519126992 100.10260014446423 98.10874713105517 1 0 1
137 69 1 0 99.41517705060302 102.10595234682091 98.50524115178513 -1 0 0
92 46 1 0 99.06112008966483 100.68494192250823 97.30336324428765 0 -2 0
106 53 1 0 98.00374589182445 100.74528982628922 98.73282197352633 1 1 1
105 53 1 0 98.6924976150705 101.39738718653732 98.02900445380523 1 1 1
91 46 1 0 99.16845092039685 100.44963750792554 98.48567363379966 0 -2 0
138 69 1 0 98.31536269418582 102.4268923282966 98.27665552800286 -1 0 0
29 15 1 0 97.9892859204299 100.81651714985958 97.40593176641839 1 0 1
58 29 1 0 97.94757605604804 102.94558827826607 102.68361475208555 1 1 -1
108 54 1 0 97.31237623454231 100.90282367917916 99.60602545375224 1 1 1
113 57 1 0 98.83074848564945 101.35213814360478 99.06830452894287 -1 -1 -1
96 48 1 0 97.7710689616303 101.7860305177121 99.02924664946975 0 2 1
179 99 2 0 97.61961345897228 101.63124070955253 97.91670707988592 1 -1 -3
161 81 2 0 99.85789010357914 101.21949042690525 97.85125422725491 1 0 1
114 57 1 0 99.79139085775282 101.9793330193815 99.46950298233936 -1 -1 -1
164 84 2 0 99.27152977082727 100.31713323002393 99.54754787983545 0 -2 0
17 9 1 0 98.2905381455069 100.64656765625692 99.82287938606741 -1 -1 -2
132 66 1 0 97.26558305816619 102.61148492847497 98.49266137715058 -1 -2 -2
167 87 2 0 97.11161228516735 101.96017401680717 100.09305447157452 2 -2 2
133 67 1 0 98.27685442537518 101.85153625436467 99.93133593782065 1 1 0
18 9 1 0 99.28625300681296 101.23513737314555 100.0170938337867 -1 -1 -2
200 120 2 0 102.10011192885261 102.63889589771823 97.40490288198959 0 0 0
15 8 1 0 99.94896168106752 100.98356339937209 99.03987684810875 -2 -2 0
140 70 1 0 102.95359239951877 101.10275971538479 98.5719370536332 0 -2 -2
166 86 2 0 99.94605058096067 102.84839797398438 97.96436477603743 -2 1 1
41 21 1 0 101.74247834206206 100.49893223579082 97.63367035500134 -2 1 -1
4 2 1 0 102.07863551336692 102.7086275993134 98.54723714259522 -1 -2 2
193 113 2 0 101.21354998170808 100.12877483919398 98.59942591887592 0 -1 1
44 22 1 0 101.3269218404293 102.05469819528018 98.07329128869168 -2 0 2
16 8 1 0 100.44489997131919 101.93370273658711 98.60202462623128 -2 -2 0
95 48 1 0 102.56840307080991 101.95193485043983 99.13015648012909 0 1 1
36 18 1 0 100.99035750074266 101.01711818611253 99.28395554795306 -1 0 0
125 63 1 0 100.22626563808448 100.22832970679642 98.35736655097618 0 0 1
163 83 2 0 101.79811160075441 101.22214271037954 98.46115435637934 -1 -1 -1
185 105 2 0 102.84346855083854 100.98882440535625 97.42873709307426 1 0 0
43 22 1 0 102.50988484725791 101.91033932668955 98.05679521205322 -2 0 2
143 72 1 0 101.83884468934743 101.59499359627534 97.27009255279997 -2 0 -1
139 70 1 0 102.27850857330156 100.25152124378323 98.88784333540266 0 -2 -2
126 63 1 0 100.91086916291856 101.08185966820639 97.92548188129517 0 0 1
78 39 1 0 102.19775514737009 102.7312728963757 99.71317428171712 0 -1 -1
77 39 1 0 101.40311856249859 102.07200754450815 99.17220522373982 0 -1 -1
107 54 1 0 102.063734778186 101.07715714012431 99.51160322266244 0 1 1
174 94 2 0 100.545548210547 101.85651287582553 97.3091706103742 1 0 -1
165 85 2 0 100.62934228776972 101.81045401593228 100.05139824482025 -1 0 -2
1 1 1 0 100.25458571779663 100.28673251172445 97.25293131813889 -1 -2 -1
196 116 2 0 101.45998011410106 100.07292389684446 99.63783377472573 -1 -1 0
24 12 1 0 100.25971101037624 100.70293593491347 100.04411310438334 0 -2 -2
27 14 1 0 98.68440842007851 99.73953365009594 100.29999059889933 -2 -1 0
45 23 1 0 97.31539564452298 98.1863616995467 97.16966633863629 0 1 0
76 38 1 0 99.27992460234567 98.54937982789697 99.83781112633046 -3 1 0
184 104 2 0 99.37381889865276 99.8443034816418 102.5044603452852 1 1 -1
49 25 1 0 97.551739290112 99.67336832086318 101.83042513310811 0 -1 1
33 17 1 0 98.64687825175842 98.07494233771243 100.53342006027015 0 1 1
172 92 2 0 99.7438530381295 99.54792244457973 100.17842715067952 -2 0 0
59 30 1 0 98.37506788580178 98.05831550071133 102.89509373286188 1 -1 1
60 30 1 0 98.36209621582046 99.177736872422 102.36277395887537 1 -1 1
75 38 1 0 99.60791429826136 97.66435931881327 100.61065771102322 -3 1 0
98 49 1 0 99.13321382679123 97.88814939300983 101.47171865463169 0 0 -1
159 80 1 0 98.32953839127077 98.52424733529243 101.54241800575082 -1 1 2
64 32 1 0 98.10634135117299 97.36568154444498 101.38418179266002 -1 1 -2
99 50 1 0 97.60632728272624 98.192336617662 100.69956395896715 0 0 1
100 50 1 0 97.9311817560459 99.30247703298443 100.94495777265949 0 0 1
61 31 1 0 99.8776658962136 99.68509780125623 101.25925217425953 0 0 -1
74 37 1 0 99.26508089729023 98.80010020390372 100.96505898510942 0 0 -1
189 109 2 0 99.38213522461069 98.88035071722518 102.00302722306563 -2 1 -1
63 32 1 0 102.83100271184395 97.63081626163547 101.35397123846855 -1 0 -2
160 80 1 0 98.83641327129004 99.63254538142104 101.49818311380487 -1 1 2
109 55 1 0 98.83182345669192 97.37258298491845 102.29221878112686 1 0 -1
158 79 1 0 97.58098637195062 97.92619454815548 102.14117699840382 1 -1 1
28 14 1 0 97.52143906641558 100.0377921913971 100.32855563621936 -2 -1 0
123 62 1 0 97.12215727179446 99.01015873268398 100.12579199176496 -1 1 -1
85 43 1 0 97.13472091296536 98.72528460332916 101.5445909124149 1 -1 -1
177 97 2 0 101.72370712358531 97.59438989735337 100.31486457410126 1 -1 1
194 114 2 0 102.46631409348068 100.11218016178564 99.96509645726344 2 -2 -2
155 78 1 0 100.06667927815089 98.20692623414084 102.6430905541871 0 -1 -1
73 37 1 0 100.21838417976873 98.28661331816028 101.56946701848719 0 0 -1
53 27 1 0 102.69160832176652 99.50362219689512 100.94655932793759 0 -1 -1
86 43 1 0 102.91052240189454 99.08537628568736 102.65556247719599 0 -1 -1
147 74 1 0 100.71843030853918 97.5943375149924 100.8647489674125 0 3 0
12 6 1 0 101.30912245527664 98.59110692269182 100.95788285289333 -2 -1 1
152 76 1 0 101.92640480939924 99.20182825632983 100.16277383780137 1 1 0
156 78 1 0 100.45834231033234 99.28060741190738 102.43693244640333 0 -1 -1
197 117 2 0 100.21802557067538 98.69283527729792 100.56662168527366 1 2 0
153 77 1 0 101.7180502577964 97.54722350698083 102.80376320716142 -2 0 -2
8 4 1 0 101.77803216489198 99.14380499153447 102.69378344318633 -3 1 0
170 90 2 0 102.31782506342326 98.20766792083386 102.260749539885 0 -1 0
10 5 1 0 101.15183469852764 98.52996296303965 102.01513723560433 0 -1 0
89 45 1 0 102.33649447682349 98.4018238630857 100.79612052445023 0 0 -1
90 45 1 0 101.95382865094867 99.16187093700691 101.6298003475915 0 0 -1
104 52 1 0 101.28981980086958 100.00535777175652 102.18776540179935 -3 2 -1
48 24 1 0 101.62429218810699 97.7267330650826 101.50418773134079 0 1 0
173 93 2 0 102.48657098909177 99.99143006820252 102.01331907191918 1 0 0
121 61 1 0 102.73914630487417 97.3305895552724 102.74649806681745 0 1 1
11 6 1 0 100.87887017721633 99.47022714773867 100.31472884936758 -2 -1 1
81 41 1 0 100.83801819284379 99.41696201480885 101.40942485043583 1 -1 -1
190 110 2 0 100.75143389689498 97.4531478244843 102.24642595766366 -1 -1 0
127 64 1 0 99.81709103689519 97.183255071301 102.89008063465205 1 1 2
6 3 1 0 98.3607697141807 102.1193679435349 97.23222990631587 1 -2 1
57 29 1 0 97.58838697167901 101.68231993368875 102.6459323508097 1 1 -1
134 67 1 0 98.4714019654811 102.95570355391851 100.34245858299107 1 1 0
93 47 1 0 98.22295387983002 100.3644780731276 101.11319243449782 0 0 0
195 115 2 0 99.8962721037387 97.24581214700922 101.69554667621854 1 -1 0
55 28 1 0 97.44231099699 102.95389056399173 100.63834621017567 1 -1 2
54 27 1 0 97.165848884 100.50167513439048 101.24955849975191 1 -1 -1
97 49 1 0 98.97876250495766 102.59920642944324 101.30264583667596 0 -1 -1
157 79 1 0 97.3085233809456 102.6934228756833 101.91571421740754 1 -2 1
5 3 1 0 99.22299877795079 102.3776714254897 102.36217398786152 1 -2 0
183 103 2 0 97.68119588906346 101.16985043765136 100.62694634604516 1 -1 -1
2 1 1 0 99.86135663317067 101.28765439709458 102.67084628480883 -1 -2 -2
176 96 2 0 98.36991582948066 100.31529583011582 102.32935871845197 -1 -1 0
110 55 1 0 98.26087439147258 102.23347791700887 101.96717041060852 1 -1 -1
69 35 1 0 99.24573563965313 102.20834354339294 100.36943569165693 -1 -1 0
182 102 2 0 98.72898499905695 101.30606155141055 102.4235043327711 0 0 -1
94 47 1 0 99.38375697971405 100.41309624803856 100.72922823961494 0 0 0
31 16 1 0 97.87780535044755 101.27140373857675 101.68673514668741 -1 1 -1
32 16 1 0 98.07876127616235 102.16538508140711 100.94202252609995 -1 1 -1
162 82 2 0 98.7704546265918 101.28460678760011 101.03989296192358 0 -1 0
38 19 1 0 99.56857983729992 101.68573434529966 101.71218919999255 -1 1 0
62 31 1 0 99.2674750836184 100.6241148916331 101.75937834117839 0 0 -1
188 108 2 0 97.33029304390132 100.6171231250615 102.43919354334251 0 -1 2
70 35 1 0 99.97164039324493 101.34493854561583 100.83663537438916 -1 -1 0
52 26 1 0 100.1125540586867 102.76890958660569 100.10588036225303 -2 0 -1
51 26 1 0 101.20763645699958 102.61270548591996 100.54949898775418 -2 0 -1
22 11 1 0 102.16165681911797 102.86197679197264 101.90190961714092 0 -1 -1
84 42 1 0 101.70852460331463 99.95854604488892 100.81609059125745 0 1 -1
122 61 1 0 102.49768046539916 102.07093923683027 102.51309501238178 0 0 1
26 13 1 0 102.50330355498852 101.08805814084594 100.64690802587893 -2 -1 -1
82 41 1 0 100.25115367339137 100.30393943231775 102.09960656295155 1 -1 -1
25 13 1 0 97.10258483613784 102.03593846643503 101.16691194477505 -1 -1 -1
141 71 1 0 102.70605855156235 101.26562686045442 101.8523320488866 1 0 -1
47 24 1 0 102.27339072103885 102.7951531131953 100.83761132215169 0 0 0
37 19 1 0 100.32037571176559 102.36056931324545 102.29655428887324 -1 1 0
117 59 1 0 101.12386640756672 102.61853225919239 101.58125619362461 -1 0 -1
144 72 1 0 101.01849882300372 100.85970862987706 102.77951407025937 -2 0 -2
118 59 1 0 102.01157250408916 101.84594516617382 101.28683703706588 -1 0 -1
20 10 1 0 101.8844167032843 101.85695870407496 100.21163639139394 -1 -1 0
186 106 2 0 101.6852727282321 100.73172047884042 101.49448184202355 0 2 0
142 71 1 0 101.54698244508593 101.54991051918697 102.14818212152642 1 0 -1
180 100 2 0 100.54333092345804 101.26688803177355 101.87978185400938 -1 3 0
19 10 1 0 101.01453314229131 101.6211394226963 101.01569231502573 -1 -1 0
23 12 1 0 101.39391398460445 100.90787402040499 100.3534350773515 0 -2 -2
83 42 1 0 100.6400609438888 100.44752794492184 101.03673462494179 0 1 -1
103 52 1 0 102.13826881998051 100.77674672381967 102.58849434284699 -2 1 -1
148 74 1 0 100.21970268829334 102.38283587635364 101.06481688787291 0 2 0
21 11 1 0 101.36446489910472 102.43601259503849 102.63176414156499 0 -1 -1

Velocities

146 0.163501589221212 -0.13006348018087 0.001047767634057612
198 -0.12425120225538185 0.23072179865000683 0.5126472777902391
34 0.13326190975312105 -0.006318125920438664 -0.01746454887310446
115 0.1363725780149454 -0.015938682764796975 -0.1750118412405011
87 0.09411782862199902 -0.27513199018907736 -0.34744196952452094
192 0.2031462178936824 -0.1272988474131528 0.14569386330899364
116 -0.17792793992243397 0.057946401914956494 -0.3417193090201368
79 -0.22698528209675073 0.6295490958148936 0.6080630049260036
88 0.1489985653012375 0.0342245531283325 -0.07410208973082606
171 0.29188162635903253 0.4046879412322614 -0.10798610573918632
66 0.2153763769675735 -0.20401828215099954 0.08706724181062452
40 0.35049449872564853 -0.2272948371093478 0.21064141700053202
181 0.11974691114761364 0.3010187043603657 0.2815775336988792
131 -0.5004019195681718 -0.07245285602043337 -0.2723121085130868
102 0.3712416088971572 0.2032965883859991 -0.1388857465391503
13 0.21231468967176717 0.4676199589675144 -0.09280935944932905
187 0.26342561083858906 -0.17652339916785295 -0.17392055445013002
130 0.13903548914415936 0.5989371750489065 0.008550084639984613
50 0.026548735579863005 -0.4269344085407876 -0.07397493693590339
135 -0.44098189076491695 0.8689520978745406 0.00789592770719569
14 0.002293796004370877 0.5965036425265442 -0.34547337492004826
191 -0.058235600497721605 -0.036369645503809646 0.23535597184513216
39 -0.500967175130533 -0.2607732918953109 0.22030955355124485
65 0.15636724102148042 0.01680034603441052 0.11668680886080547
178 -0.03889493677686953 -0.4070502273993824 -0.4200035615712938
72 0.03639296855183954 -0.45248471222147985 0.48424160270074335
199 0.29623044968266105 0.21730351322700728 -0.06810219625265272
46 -0.4444750707132068 -0.21778898988376214 0.34182681568160633
145 -0.0601116679511404 0.27685113452735544 0.19969492959364027
80 -0.25295233876231565 -0.24406432130123973 -0.43373409104376465
42 0.595879879461698 -0.30274662690719206 0.2871294642173441
67 0.07235610895148238 -0.3836781611788436 0.2694551165319545
169 0.07880853994404854 -0.13131258375286203 0.4991020087128421
150 0.47654095607149244 0.19856388701437047 -0.1572958519646358
101 -0.5868245254158588 0.49414140906705095 -0.5639531920372415
68 -0.22996660835788774 0.05433864925357275 -0.043265619125780516
151 -0.13512939183058617 0.512863736955692 -0.04569901595036505
149 0.00552213490494646 -0.3238528827576345 0.2083743436181153
119 0.379051797464375 0.154536480833669 0.5842347404054814
120 -0.5239096146394281 -0.5307602426408258 -0.1725904527086046
111 0.3114436407403559 0.28470222717500404 -0.04876520115428971
3 0.4500739987097224 -0.1485866625808505 0.21371763058829676
112 0.23352109524782508 -0.2012584820304301 0.14060357403115217
124 0.1421653322116724 -0.5372584631595776 0.5333235560138433
7 0.4353711280974819 0.8257628638009922 0.2049435277462293
71 -0.11829812483419015 -0.4007066831754137 -0.30778712312717094
9 0.06852021469870409 0.16872090365455655 -0.12364860233200212
35 -0.4198462354854133 -0.2950814202632251 -0.180865533939298
128 -0.02536692176396951 -0.026800859989131724 0.48266784543219143
154 0.017995258321427385 0.001248215158505188 0.08395838961392679
175 0.06527371900485605 0.17882779599752036 0.37289595888095634
56 0.6321358133703521 -0.166812085883818 0.013778547995564078
168 0.0703164898068636 -0.19547259714621512 -0.2825408398218041
136 -0.10371637313078447 -0.36022842369318114 -0.23076063280614356
129 0.5633947084146333 0.09247544988851873 0.17700162626368268
30 0.012255184596993856 0.3122445494382289 0.13580591290017616
137 -0.5475198358403303 0.5346522503683286 -0.07111302223882372
92 0.024118224844414667 -0.12288341581646638 -0.23865733403294578
106 0.33995132172050996 -0.43638300545415837 0.04919778280301911
105 0.5810278266953569 0.21941949880747838 -0.3292284701884531
91 0.09170947273716737 0.153346468981479 0.6047414337002784
138 -0.16678437440603647 0.36268483591756356 0.003968201731030987
29 0.35123844320635383 -0.3156642532564669 0.1302322556892181
58 0.023430342085447708 -0.14681743685638696 -0.36965370762815947
108 -0.02349919434424726 0.1786257469636587 0.06280094401552437
113 0.016564869565339622 -0.5660998202921907 -0.1328953050160728
96 0.19658208348307896 0.46146779912005964 -0.7534379664378411
179 -0.19700114222534643 -0.24507982278009827 0.30175034280465474
161 -0.12672169285277843 0.06456546846300112 -0.31293201169869483
114 -0.6316593625613259 0.389126065025532 0.2650855063908614
164 -0.20334465015930572 0.19265512960125442 0.30974679995006865
17 -0.23757518693134727 -0.31461667175847435 0.7189078924091016
132 -0.1578960810182101 0.2790895255634761 0.011226846487011072
167 0.035951644868436126 0.19452064659493784 0.10095127402499961
133 0.07524385870259738 0.14280206114485175 -0.30552834581319577
18 -0.040541395365964746 0.4618735868960302 -0.0007132721922394967
200 -0.561543499164454 -0.09397735731045329 0.5960027003960636
15 0.08076572106004906 0.08690809149831907 0.3612836123057281
140 -0.2539983284157481 -0.6050294689976973 0.21708749882767422
166 -0.4550713028453778 0.10591696408786232 0.016573429887425842
41 -0.004982022007726419 -0.33873387903506674 0.02729183181374518
4 -0.22199119737264641 -0.25010600912290154 0.15555142036942116
193 0.4577002669281276 0.06742918750548374 0.37994917782851584
44 0.02626868918588518 -0.023866533057446668 0.09808111213049286
16 -0.06578684066004611 -0.38406452851141215 -0.6187660682322517
95 -0.4553403354532241 -0.08439937754346316 -0.5106797081825181
36 0.2106393688052173 -0.0012233478313054065 0.16017281604564934
125 0.2746249003280804 -0.060351743021161856 -0.07486838482489303
163 0.15375866345519426 -0.3326250298522431 0.197638161451503
185 0.31289831201863555 -0.07167207646951206 -0.06944858547962136
43 0.3389413218340754 -0.06899906669455974 0.07830252194818496
143 -0.3412495186488752 -0.09819176385664513 0.04550572032687269
139 -0.34528684487371863 0.23554975685883675 -0.5764117698461638
126 0.24783746414198535 -0.15212385984363258 -0.023648289099176295
78 -0.19031152971936266 0.5300138199108546 -0.3224351856465657
77 0.04604044531470679 -0.06238051770807194 0.5852799714343151
107 -0.3884655824155381 0.50628395745498 -0.09977520740387359
174 -0.30296432805966544 0.2723731740710101 -0.25187588312272524
165 -0.02930276968488145 -0.2602179939353135 0.22107642806424213
1 -0.07722188071274282 -0.3592297346108321 0.20728148916372185
196 0.07736862325690017 0.16666422112747897 -0.3266514561615154
24 0.5385965892175785 0.6371194932866625 -0.3896196667766083
27 0.1813504881128156 -0.633582565800755 0.22767708741545864
45 -0.20001923955383175 0.346970033477579 0.27933156661591113
76 -0.00018286262485638327 0.3451359062535444 -0.18094058077494915
184 0.09968943732433867 -0.16590791610976494 0.15544769942997338
49 -0.07480178322534628 0.13005359561489704 -0.24892918246951684
33 -0.4074113929403098 0.2600522783504459 -0.4198611969366247
172 0.06896955449422575 0.4232868280964515 -0.03925526699951848
59 0.09376293511864744 -0.37664446067799295 0.4801063547272024
60 -0.7428874148107978 0.10890945479051 -0.03844951891152443
75 -0.8879163020569024 -0.13392374244959462 -0.08421314189578069
98 0.330132262983393 0.3627033198644078 -0.29611271222770214
159 -0.3943638382183574 0.008683117611033348 0.032636861703848295
64 0.37056031307071935 0.04826262304864017 0.1690713465470174
99 0.2723027786912493 0.5068279268620073 -0.004345650477781579
100 -0.10771612053063258 -0.022155805315863402 -0.11473945512050075
61 0.6779246036823044 -0.18787838288072023 0.0022634771139009428
74 0.4939135715846298 0.08040711314804459 0.20027357614649619
189 0.29745267830086386 0.06105501508787218 -0.2895842156363063
63 -0.02901077890009861 0.015440914196720796 0.15821174027330973
160 0.28923957467128886 -0.027397737768302278 0.21468732489578016
109 0.29154962382511046 0.11011062603211842 0.3685933772046363
158 0.22138017505863228 0.2854790011604382 0.013808127998640621
28 -0.486192205029346 -0.3277279007179191 -0.28317540251337225
123 -0.08958891997610968 -0.177816939675873 -0.24219874189785567
85 -0.29096630428689707 -0.530309593833739 -0.018400671515253056
177 0.15806547560010634 -0.16170700523442413 0.07926845970513162
194 -0.48221702431646046 -0.21188367803587294 0.25843275557075646
155 0.02440459170419209 -0.0818566905760991 0.17224645907962788
73 0.2499648873992387 0.06964754085192111 0.1343386879230727
53 -0.5898414407690459 0.47505095690643684 -0.545381735082056
86 -0.8808894067965 -0.014174398887427758 -0.209923222529174
147 -0.11802448772155823 0.5063583989321311 -0.3906692949846004
12 0.3959148060138394 -0.3336111798571901 -0.16443568941856387
152 0.48975594676856454 -0.07911989716151233 -0.26953107764438905
156 -0.1964987102823066 -0.15093574036320279 0.16964790239254912
197 -0.040558929157299806 -0.015244244234660836 0.35099902277303996
153 0.7631230820157533 -0.5879644246261895 -0.1012146082207317
8 -0.2725920573740486 -0.09790391771457739 -0.5128484563297104
170 0.2103957579896424 -0.03541272246092381 -0.5923531748545127
10 -0.08823316700241905 -0.16004947229862274 -0.2746150092436748
89 0.31836654629097993 -0.06690635903271303 0.3444760322919805
90 0.26694634433590214 -0.5113999498698008 -0.08973688395532262
104 -0.24691683395756883 -0.441844001474546 0.01165373892913221
48 -0.49529707997021943 0.05245102552428634 -0.18482896905767496
173 0.0880600501692157 0.0625416926649824 0.13215521435579616
121 0.30324135100703625 -0.05270109773674798 -0.03425346018537209
11 0.03337861761307722 -0.3097011237069338 -0.24338040793358337
81 0.3722834122038244 -0.33882507727741856 0.22604191919052183
190 0.1932922336973568 0.2183029884382007 0.22267287112097203
127 0.1342386362610488 0.41381738093851733 0.15290776470911846
6 -0.12516168582844187 0.649072819151804 0.09120298327152679
57 -0.7880175582443143 0.20879583868757456 0.7150096841858883
134 0.10791091664242947 -0.3107640802778116 0.31116311277254816
93 0.4262784962425517 -0.6669894789708213 -0.6686922178870583
195 -0.06880568299744717 0.18855583772631102 -0.04974066691403449
55 -0.06585768715424865 0.05534952317822818 0.0335780789756351
54 0.32368759310249134 0.3484608619978757 0.19538219601469867
97 0.05194136012228951 -0.12196214150959041 0.12646063159450724
157 -0.11595699810585994 0.06289070247734338 -0.36394054772551293
5 -0.12965275651061947 -0.29478950664976417 0.1462016585333241
183 -0.4138829970843168 0.16547489951055527 -0.12194900844112706
2 0.2550713667855472 0.20774772104629488 0.07508665060594154
176 0.2628097586015288 -0.048131922672631014 -0.2010988000865474
110 0.37423759741447554 -0.07231675539627114 0.20092554555560932
69 -0.3728999350998458 0.31222877111889696 -0.12271995403610199
182 0.028586296428369403 -0.243869189583085 -0.2287571527909513
94 -0.17258309601722277 0.4922699934904211 -0.21964176366748714
31 -0.4298017908535262 0.0162981442717392 -0.16214414642897243
32 0.6780311942456311 -0.4540743653638012 0.8560318660410987
162 -0.5483635399342507 0.255994251717535 -0.07536044013351356
38 0.015401659193876429 -0.7522164095024486 0.3216432995563994
62 -0.10666146873067492 -0.15045465874119635 0.4173158517939282
188 0.031352954949146895 0.04671988865187478 -0.16676713517397193
70 0.20681620080180116 -0.13618259017492335 -0.2663806250709661
52 -0.10135528643791543 -0.4034779720301775 0.28016643246250916
51 -0.051417259326612764 0.0007120979014949404 -0.5603013273406958
22 -0.4986083529718235 0.36482171921185286 -0.362040018669037
84 -0.27234051864606135 -0.21763515927882582 -0.2925705467987544
122 0.08809803826629349 -0.26116017378209605 -0.3390160208688223
26 -0.025730456618666814 -0.1216878965350076 -0.36298138244120787
82 -0.5424634769579311 -0.12612556453049809 0.027339369788772813
25 -0.18691016909934696 -0.17289852750715035 -0.5817852781195026
141 0.11044035752057263 -0.1685079237737239 0.13636563864897702
47 0.023200858862992925 -0.20788036768765744 -0.032804668963674816
37 0.027385471564238185 0.10737816974068223 0.15344590166692756
117 -0.3986587960790311 -0.040955954785261886 -0.5970944454564415
144 0.1299816980352339 -0.4277291199169936 -0.449727782657234
118 0.011788815159062618 0.6708863952117092 0.04644136333918652
20 0.037045568238289826 -0.3080205988485944 -0.20109110138249095
186 0.528433420372388 0.3197780502410256 -0.326865122854947
142 -0.17269350255020466 -0.3198548126787044 0.05283768010477937
180 0.044469140972569654 -0.2942189688460915 0.032281536944156294
19 -0.7349151012109456 -0.015541049469138313 -0.14831782607846458
23 0.17044729440883188 0.7491697887686654 0.10561961254565448
83 -0.21910572189154573 -0.7620741428558674 0.37429129332888106
103 -0.12829161630528674 0.58039985104916 0.11959592945113665
148 -0.06653764721930404 0.3829775356142053 0.09952269987479952
21 0.3649299101757362 0.06823749121670723 0.09626844954468972

Bonds

1 2 198 115
2 2 198 146
3 1 115 116
4 1 87 88
5 2 192 30
6 2 192 34
7 2 192 102
8 2 192 123
9 1 79 80
10 2 171 33
11 2 171 72
12 2 171 75
13 2 171 88
14 2 181 131
15 1 131 132
16 1 13 14
17 2 187 17
18 2 187 27
19 2 187 65
20 2 187 106
21 1 135 136
22 2 191 42
23 2 191 45
24 2 191 50
25 2 191 116
26 1 39 40
27 1 65 66
28 2 178 59
29 2 178 155
30 2 199 68
31 1 145 146
32 1 67 68
33 2 169 9
34 2 169 41
35 2 169 80
36 2 169 150
37 1 101 102
38 1 151 152
39 1 149 150
40 1 119 120
41 1 111 112
42 1 3 4
43 1 7 8
44 1 71 72
45 1 9 10
46 1 35 36
47 2 175 40
48 2 175 47
49 2 175 89
50 2 175 99
51 2 168 56
52 2 168 87
53 2 168 114
54 2 168 134
55 1 129 130
56 1 137 138
57 1 105 106
58 1 91 92
59 1 29 30
60 1 113 114
61 2 179 57
62 2 179 132
63 2 161 15
64 2 161 91
65 2 161 105
66 2 161 125
67 2 164 24
68 2 164 35
69 2 164 94
70 2 164 113
71 1 17 18
72 2 167 20
73 2 167 55
74 2 167 78
75 2 167 96
76 1 133 134
77 2 200 44
78 2 200 128
79 2 200 149
80 1 15 16
81 2 166 14
82 2 166 16
83 2 166 67
84 2 166 130
85 1 41 42
86 1 95 96
87 1 125 126
88 2 163 36
89 2 163 95
90 2 163 139
91 2 163 143
92 2 185 43
93 2 185 140
94 1 43 44
95 1 143 144
96 1 139 140
97 1 77 78
98 1 107 108
99 2 174 129
100 2 174 144
101 2 165 23
102 2 165 77
103 2 165 148
104 1 1 2
105 2 196 84
106 2 196 107
107 1 27 28
108 1 45 46
109 2 184 1
110 2 184 60
111 2 184 66
112 2 184 92
113 1 49 50
114 1 33 34
115 2 172 11
116 2 172 74
117 2 172 76
118 2 172 79
119 1 59 60
120 1 75 76
121 1 159 160
122 1 99 100
123 1 61 62
124 2 189 61
125 2 189 98
126 2 189 156
127 2 189 159
128 1 63 64
129 1 109 110
130 1 123 124
131 1 85 86
132 2 177 3
133 2 177 48
134 2 177 71
135 2 177 120
136 2 194 26
137 1 155 156
138 1 73 74
139 1 53 54
140 1 147 148
141 2 197 12
142 2 197 81
143 2 197 145
144 2 197 147
145 1 153 154
146 2 170 8
147 2 170 63
148 2 170 85
149 2 170 90
150 1 89 90
151 2 173 53
152 2 173 86
153 2 173 104
154 1 121 122
155 1 11 12
156 1 81 82
157 2 190 10
158 2 190 153
159 1 127 128
160 1 57 58
161 1 93 94
162 2 195 5
163 2 195 97
164 2 195 109
165 2 195 127
166 1 55 56
167 1 97 98
168 1 157 158
169 1 5 6
170 2 183 25
171 2 183 133
172 2 176 29
173 2 176 31
174 2 176 49
175 2 176 93
176 1 69 70
177 2 182 2
178 2 182 6
179 2 182 110
180 1 31 32
181 2 162 18
182 2 162 32
183 2 162 38
184 2 162 69