LAMMPS (23 Jun 2022)
OMP_NUM_THREADS environment is not set. Defaulting to 1 thread. (src/comm.cpp:98)
  using 1 OpenMP thread(s) per MPI task
Reading data file ...
  orthogonal box = (0 0 0) to (200 200 200)
  1 by 1 by 1 MPI processor grid
  reading atoms ...
  200 atoms
  scanning bonds ...
  1 = max bonds/atom
  reading bonds ...
  80 bonds
Finding 1-2 1-3 1-4 neighbors ...
  special bond factors lj:    0        0        0       
  special bond factors coul:  0        0        0       
     1 = max # of 1-2 neighbors
     0 = max # of 1-3 neighbors
     0 = max # of 1-4 neighbors
     1 = max # of special neighbors
  special bonds CPU = 0.000 seconds
  read_data CPU = 0.046 seconds
Generated 0 of 1 mixed pair_coeff terms from geometric mixing rule
Neighbor list info ...
  update every 1 steps, delay 0 steps, check yes
  max neighbors/atom: 2000, page size: 100000
  master list distance cutoff = 5.5
  ghost atom cutoff = 5.5
  binsize = 2.75, bins = 73 73 73
  1 neighbor lists, perpetual/occasional/extra = 1 0 0
  (1) pair lj/cut, perpetual
      attributes: half, newton on
      pair build: half/bin/newton
      stencil: half/bin/3d
      bin: standard
Setting up Verlet run ...
  Unit style    : lj
  Current step  : 0
  Time step     : 0.002
Per MPI rank memory allocation (min/avg/max) = 7.938 | 7.938 | 7.938 Mbytes
   Step          Temp         Density         PotEng        Enthalpy        Press           Pxx            Pyy            Pzz            Pxy            Pxz            Pyz             Lx             Ly             Lz             Xy             Yz             Xz          Density    
         0   1              2.75e-05       2.2913944e-28  2.4875         2.4875e-05     2.4540872e-05  2.7057051e-05  2.3027077e-05 -8.5634887e-07  1.0219777e-06  4.891355e-07   200            200            200            0              0              0              2.75e-05     
       100   2.5460692      0.00020837979  4.84198       -3.056329      -0.0022160845  -0.0064438455  -9.1411273e-05 -0.00011299676 -0.00011418486  0.00013728392 -2.0090717e-05  101.8253       101.8253       101.8253       0              0              0              0.00020837979
       200   4.2640532      0.00048094567  1.6513668      17.204904      0.0040178369   0.0058416538   0.0033632291   0.0028486277  -4.2584881e-05 -8.5776083e-05  7.8916975e-05  77.050516      77.050516      77.050516      0              0              0              0.00048094567
       300   3.4125164      0.00083253566  0.10036516     9.1504653      0.0029947969   0.003600883    0.0028676378   0.0025158699  -2.8528744e-05 -7.8541805e-05  4.7319703e-05  64.171168      64.171168      64.171168      0              0              0              0.00083253566
       400   2.6571691      0.0012518399   1.5337555      0.87891331    -0.0052584866  -0.0047316639  -0.0058710951  -0.0051727007  -0.00040345451 -0.00026642202 -0.00021486887  56.013318      56.013318      56.013318      0              0              0              0.0012518399 
       500   1.8135026      0.0017357849   1.6574824      11.407398      0.011114171    0.010025479    0.012955967    0.010361069   -0.00053567625  0.00065066152  0.00020196311  50.231436      50.231436      50.231436      0              0              0              0.0017357849 
       600   1.887096       0.0022800035   0.35010102     2.2638399     -0.0018711615  -0.0020956187  -0.0023541289  -0.0011637367   0.00015696554 -0.00042937007 -0.00013044389  45.866513      45.866513      45.866513      0              0              0              0.0022800035 
       700   1.9996065      0.0028744018   0.26085713     2.6297032     -0.0016085325  -0.0008103956  -0.0019328788  -0.002082323   -0.00041882023 -0.00043927524  8.3035344e-05  42.457889      42.457889      42.457889      0              0              0              0.0028744018 
       800   1.0013361      0.0035284059   0.9803303      7.7803202      0.01701813     0.016053892    0.019780529    0.015219967   -0.001264975    0.0013563004   9.8541218e-05  39.653487      39.653487      39.653487      0              0              0              0.0035284059 
       900   0.95535272     0.0042287882   0.68136485    -1.4188015     -0.013555305   -0.013668336   -0.016019264   -0.010978314    0.0011555078  -0.001565172   -0.00027312395  37.330939      37.330939      37.330939      0              0              0              0.0042287882 
      1000   1.4199059      0.0049741957   0.060877612    4.0964567      0.0086658155   0.0081764013   0.010921921    0.0068991245  -0.001574419    0.00025407406  0.00060104724  35.364425      35.364425      35.364425      0              0              0              0.0049741957 
      1100   0.92657841     0.0057766549   0.33937117     5.3759232      0.019187074    0.021181711    0.020411202    0.015968308   -0.0016919031   0.00094284166 -0.00014498582  33.644604      33.644604      33.644604      0              0              0              0.0057766549 
      1200   0.69069917     0.0066111914   0.68561962    -2.2812392     -0.024027037   -0.028941128   -0.025235738   -0.017904244    0.0016426201  -0.0021432621  -0.00018933418  32.16481       32.16481       32.16481       0              0              0              0.0066111914 
      1300   1.0079202      0.0074956599   0.24512831     4.9620165      0.021891192    0.024111802    0.024442517    0.017119258   -0.0023826424   0.00094381482  0.00030065381  30.846385      30.846385      30.846385      0              0              0              0.0074956599 
      1400   1.0274274      0.0084293801  -0.0018322335   3.2996367      0.01354857     0.018013707    0.012530113    0.01010189    -0.00095037728  0.00037062722 -0.00035878633  29.662586      29.662586      29.662586      0              0              0              0.0084293801 
      1500   0.87907286     0.0093841441   0.40193575    -1.2123586     -0.024964473   -0.037450371   -0.022250894   -0.015192155    0.002443757   -0.0011812291   0.000163498    28.62042       28.62042       28.62042       0              0              0              0.0093841441 
      1600   0.84818768     0.010398919    0.46001299     5.6980269      0.037550438    0.047528052    0.037751404    0.027371858   -0.0048603251  -0.00036484946  0.00060091187  27.657409      27.657409      27.657409      0              0              0              0.010398919  
      1700   1.0989071      0.011446726    0.034151035    1.5062692     -0.0017482342  -0.0020817645  -0.0025882656  -0.00057467232  0.0031670925  -0.00022162291 -0.0012140301   26.786366      26.786366      26.786366      0              0              0              0.011446726  
      1800   1.1728715      0.012515944    0.11812828     0.94400473    -0.010520609   -0.025081506   -5.4556926e-05 -0.0064257653   0.0031436106   0.0012999941   0.0011214126   26.000778      26.000778      26.000778      0              0              0              0.012515944  
      1900   0.93357348     0.013651189    0.40759938     5.8195234      0.049871088    0.067308816    0.045610983    0.036693467   -0.010960592   -0.0020147703   0.0012582538   25.259073      25.259073      25.259073      0              0              0              0.013651189  
      2000   0.99609585     0.014801852    0.24370592    -0.10720017    -0.024726885   -0.036083074   -0.021333963   -0.016763618    0.0074199739   0.00348401    -0.00664809     24.586812      24.586812      24.586812      0              0              0              0.014801852  
      2100   1.2152437      0.015985066   -0.031854838    2.5360724      0.010959594    0.0081082723   0.014634396    0.010136115   -0.0031832579   0.0012502524   0.0016852275   23.964557      23.964557      23.964557      0              0              0              0.015985066  
      2200   0.96162931     0.017232812    0.17369099     4.9100139      0.05171553     0.072423069    0.045982925    0.036740595   -0.0073884245  -0.0040851082   0.0025753273   23.371622      23.371622      23.371622      0              0              0              0.017232812  
      2300   0.82379222     0.018476399    0.33217221    -1.1012783     -0.044729017   -0.070176884   -0.037761225   -0.026248943    0.0092674575   0.00043723158 -0.0034597614   22.83504       22.83504       22.83504       0              0              0              0.018476399  
      2400   1.0274145      0.019775103    0.037327308    3.5219872      0.035078223    0.045592417    0.034497158    0.025145093   -0.0087847492  -0.0016352624  -0.00045901032  22.323792      22.323792      22.323792      0              0              0              0.019775103  
      2500   0.99099861     0.021125013   -0.023257767    3.5032843      0.039320881    0.05219288     0.033219979    0.032549784   -0.0051887102  -0.00089982534 -0.0026778876   21.837784      21.837784      21.837784      0              0              0              0.021125013  
      2600   0.86082261     0.022462044    0.23111857    -0.86335282    -0.048584363   -0.06820383    -0.040115212   -0.037434047    0.0041198754   0.0016002653   0.0039845807   21.3956        21.3956        21.3956        0              0              0              0.022462044  
      2700   0.96827812     0.02386991     0.11519283     4.5004033      0.063798961    0.077226421    0.064073949    0.050096513   -0.0076974391  -0.0041845681   4.8607538e-05  20.966405      20.966405      20.966405      0              0              0              0.02386991   
      2800   1.0784131      0.025303215   -0.077778073    2.3035633      0.017753882    0.018819092    0.019394641    0.015047914   -0.0051493076   0.0016954839  -0.0053312981   20.562803      20.562803      20.562803      0              0              0              0.025303215  
      2900   1.0444408      0.026729946    0.070420334    0.062713222   -0.038066724   -0.047382855   -0.027946148   -0.038871168    0.0060490505   0.0004152151   0.0049542729   20.190242      20.190242      20.190242      0              0              0              0.026729946  
      3000   0.98541764     0.028243046    0.15450538     5.0747359      0.08856749     0.098723098    0.09323574     0.073743631   -0.0026596562  -0.0067797124   0.012204727    19.823046      19.823046      19.823046      0              0              0              0.028243046  
      3100   1.0553382      0.029747705    0.0010450476   1.0400197     -0.014498424   -0.023449371   -0.0039031358  -0.016142767   -0.010799603    0.0066296051  -0.015708289    19.483026      19.483026      19.483026      0              0              0              0.029747705  
      3200   1.1046406      0.03127254    -0.057063028    1.434661      -0.0044620814  -0.0051324614  -0.0078950368  -0.00035874585  0.0061249438   0.00098792357  0.0017985292   19.161074      19.161074      19.161074      0              0              0              0.03127254   
      3300   0.99364988     0.032882572    0.0024718525   4.4494803      0.088603168    0.1015409      0.091849235    0.072419373   -0.0007443901  -0.0027207606   0.0061040859   18.843098      18.843098      18.843098      0              0              0              0.032882572  
      3400   0.93670142     0.034460597    0.014872941    0.17509896    -0.038777597   -0.048222291   -0.024954735   -0.043155763   -0.0073888495  -0.0075372612  -0.006276375    18.55097       18.55097       18.55097       0              0              0              0.034460597  
      3500   0.99133862     0.036087518   -0.080911518    2.1931756      0.026065496    0.023923471    0.025924747    0.02834827    -0.0024429434   0.0031826321   0.0084639593   18.267897      18.267897      18.267897      0              0              0              0.036087518  
      3600   0.90685503     0.03778488    -0.025424531    3.4779154      0.073847416    0.08349208     0.070235179    0.067814988   -0.0008990442   0.0087310144   0.0023071507   17.990154      17.990154      17.990154      0              0              0              0.03778488   
      3700   0.87457432     0.039446241    0.045442175   -0.41788066    -0.06342328    -0.066998164   -0.035446956   -0.08782472    -0.0065241777  -0.027558066   -0.0013235911   17.733958      17.733958      17.733958      0              0              0              0.039446241  
      3800   1.0042683      0.041179182   -0.078787533    3.0516793      0.061079823    0.057907545    0.047819904    0.07751202     0.0017455859   0.010349927    0.012066513    17.481619      17.481619      17.481619      0              0              0              0.041179182  
      3900   1.0476722      0.042952286   -0.12488339     2.9867635      0.060445431    0.063433672    0.070321551    0.04758107    -0.014863621    0.015293513   -0.0014795689   17.237679      17.237679      17.237679      0              0              0              0.042952286  
      4000   1.0403691      0.044676804   -0.029551405   -0.015153043   -0.062480613   -0.053607922   -0.035576786   -0.09825713     0.0056953025  -0.031776404    0.0057137165   17.012972      17.012972      17.012972      0              0              0              0.044676804  
      4100   1.1050658      0.04649904    -0.099340757    4.1045656      0.1079875      0.10061281     0.10487875     0.11847093    -0.0092299123   0.012078742    0.011548404    16.787766      16.787766      16.787766      0              0              0              0.04649904   
      4200   1.122272       0.048316861   -0.18723964     1.9824854      0.021730908    0.019559257    0.033148075    0.012485393   -0.0027294122   0.0063359886  -0.0099816362   16.574534      16.574534      16.574534      0              0              0              0.048316861  
      4300   1.0505629      0.050125794   -0.12792892     0.38836548    -0.047923479   -0.045040731   -0.045002308   -0.053727398   -0.0067348717  -0.0013650707   0.0014071187   16.372706      16.372706      16.372706      0              0              0              0.050125794  
      4400   0.96933055     0.05204959    -0.11313821     3.9302448      0.12286813     0.1208001      0.11924689     0.12855739     0.01230377    -0.0080256979   0.020879769    16.168453      16.168453      16.168453      0              0              0              0.05204959   
      4500   0.94487696     0.053928949   -0.18000734     0.71835686    -0.025094839   -0.027478625   -0.015883647   -0.031922245   -0.0061856266   0.014017413   -0.0020025628   15.978411      15.978411      15.978411      0              0              0              0.053928949  
      4600   0.95085275     0.055851149   -0.22502337     1.080218      -0.0057834578  -0.013601492    0.012664807   -0.016413689   -0.020938132   -0.0060781189   0.014338234    15.79296       15.79296       15.79296       0              0              0              0.055851149  
      4700   0.91249429     0.057861812   -0.21580737     3.2342281      0.10983949     0.11604655     0.11204938     0.10142253     0.021568982   -0.0092788308  -0.00022612523  15.607867      15.607867      15.607867      0              0              0              0.057861812  
      4800   0.90559064     0.05980107    -0.2003781      0.15493939    -0.054162185   -0.037024817   -0.048727706   -0.076734031   -0.021063237    0.0023296686  -0.0028981081   15.437296      15.437296      15.437296      0              0              0              0.05980107   
      4900   1.0030159      0.061814864   -0.29846472     1.8424605      0.036185526    0.038376932    0.023805835    0.04637381    -0.0074989252  -0.0096797617   0.023021931    15.267804      15.267804      15.267804      0              0              0              0.061814864  
      5000   1.0425732      0.063885083   -0.336421       2.9665472      0.10145692     0.10455243     0.098661375    0.10115696     0.0042612797   0.0089524743   0.0082175997   15.101071      15.101071      15.101071      0              0              0              0.063885083  
      5100   1.0202795      0.065891495   -0.2656925      0.10145577    -0.069223141   -0.062571184   -0.027942987   -0.11715525     0.02235879     0.0020985155   0.00076731765  14.946211      14.946211      14.946211      0              0              0              0.065891495  
      5200   1.0554428      0.067995118   -0.30562561     2.6450067      0.085017625    0.082854136    0.058233335    0.1139654     -0.0065538381  -0.022250751    0.017614419    14.790459      14.790459      14.790459      0              0              0              0.067995118  
      5300   1.1010862      0.0700906     -0.4147571      1.956827       0.046400806    0.047776115    0.046192412    0.045233892   -0.0065722269   0.0056574934   0.010633811    14.64157       14.64157       14.64157       0              0              0              0.0700906    
      5400   1.0119194      0.072211004   -0.34222303     0.43502259    -0.048121681   -0.063523046   -0.03877516    -0.042066836   -0.009500632    0.035013271    0.0044874509   14.496832      14.496832      14.496832      0              0              0              0.072211004  
      5500   0.99903046     0.074402387   -0.38995837     2.074834       0.065862307    0.098576451    0.043647988    0.055362483   -0.018505976    0.00076869895 -5.8641598e-05  14.353085      14.353085      14.353085      0              0              0              0.074402387  
      5600   0.97056599     0.076611326   -0.43183672     1.627007       0.042503544    0.025277532    0.054858266    0.047374833   -0.0080050243  -0.012168792    0.008839858    14.21379       14.21379       14.21379       0              0              0              0.076611326  
      5700   0.9247909      0.078804794   -0.40548501     0.50876737    -0.033384436   -0.026715809   -0.0015013903  -0.071936109    0.030796611    0.00044460706  0.015889428    14.080671      14.080671      14.080671      0              0              0              0.078804794  
      5800   0.93386582     0.081086651   -0.44367605     1.6204914      0.049416614    0.059493447    0.036313352    0.052443043   -0.024136642   -0.010835376   -0.020414104    13.947331      13.947331      13.947331      0              0              0              0.081086651  
      5900   0.95698855     0.08337234    -0.47487554     1.3001304      0.026277488    0.025978375    0.017231232    0.035622857    0.011964574    0.022041414    0.018191492    13.818691      13.818691      13.818691      0              0              0              0.08337234   
      6000   1.0101906      0.085638706   -0.51351922     0.8611142     -0.010360422   -0.013468578   -0.00091136226 -0.016701326    0.017010151   -0.032189784    0.0033885194   13.695699      13.695699      13.695699      0              0              0              0.085638706  
      6100   1.0546948      0.087950224   -0.54199554     1.7907375      0.060653757    0.052915067    0.072620411    0.056425792   -0.02031816     0.014036027    0.020945516    13.574648      13.574648      13.574648      0              0              0              0.087950224  
      6200   1.0172418      0.090273454   -0.47411037     1.5900598      0.044803269    0.038081163    0.069541074    0.02678757     0.0025125793   0.036645116   -0.017731261    13.457185      13.457185      13.457185      0              0              0              0.090273454  
      6300   1.071278       0.092570414   -0.54950854     1.2019809      0.012842625    0.021527431    0.0011350405   0.015865402   -0.020708315   -0.042852227   -0.0085813892   13.344946      13.344946      13.344946      0              0              0              0.092570414  
      6400   1.0301101      0.094935559   -0.52425494     1.5921549      0.049968086    0.077948756    0.035578252    0.03637725     0.0084942581   0.021949821   -0.010648258    13.233191      13.233191      13.233191      0              0              0              0.094935559  
      6500   1.0126175      0.097356111   -0.56037967     1.1981495      0.021878367    0.02437059     0.020237259    0.021027251    0.017066108    0.021793654   -0.013954985    13.122598      13.122598      13.122598      0              0              0              0.097356111  
      6600   0.9598308      0.099761108   -0.54294592     1.4305949      0.049063728    0.095940406    0.048485872    0.0027649069   0.021274534    0.0025547891   0.023054002    13.016288      13.016288      13.016288      0              0              0              0.099761108  
      6700   0.96614677     0.10217048    -0.61177275     1.2455363      0.038577251    0.058808517    0.004384873    0.052538362    0.0041349052  -0.01117599     0.011406723    12.913156      12.913156      12.913156      0              0              0              0.10217048   
      6800   0.96989785     0.10465958    -0.67613701     1.0196977      0.023620918   -0.055833937    0.087094997    0.039601695    0.018090613    0.0091955353  -0.012273789    12.809964      12.809964      12.809964      0              0              0              0.10465958   
      6900   0.94416271     0.10716408    -0.66856934     0.73762466    -0.00028923135  0.037318819    0.0041075425  -0.042294056    0.037289115    0.038414743    0.001217435    12.709384      12.709384      12.709384      0              0              0              0.10716408   
      7000   0.96457919     0.10967575    -0.70858079     1.3896969      0.065670172    0.072941377    0.025913023    0.098156117   -0.029637755   -0.017135003    0.021173026    12.611615      12.611615      12.611615      0              0              0              0.10967575   
      7100   1.0028282      0.11218623    -0.76834902     1.3151531      0.059844319    0.056305109    0.1014145      0.021813351    0.0050951917  -0.045690844    0.023966265    12.516831      12.516831      12.516831      0              0              0              0.11218623   
      7200   0.99921761     0.11468006    -0.75053962     0.90684587     0.01731181     0.025128317    0.042660607   -0.015853494    0.0038612921  -0.0096638222  -0.0021022747   12.425435      12.425435      12.425435      0              0              0              0.11468006   
      7300   0.9481327      0.11723486    -0.66608584     1.2868228      0.057319382   -0.028070696    0.1201317      0.079897144   -0.021201175   -0.0014754973   0.030363568    12.334512      12.334512      12.334512      0              0              0              0.11723486   
      7400   0.98356081     0.11984788    -0.70840655     0.99654542     0.025820405    0.042210208    0.014519844    0.020731163   -0.001896975    0.0078062792  -0.020313349    12.24421       12.24421       12.24421       0              0              0              0.11984788   
      7500   0.9987426      0.12244422    -0.70198466     0.73448213    -0.0060283232   0.01560536    -0.026492637   -0.0071976927   0.010516222   -0.033552738   -0.013662884    12.157048      12.157048      12.157048      0              0              0              0.12244422   
      7600   1.0003275      0.12512281    -0.67697347     1.1524551      0.038269361    0.015634113    0.097330177    0.0018437938  -0.033653084   -0.041168516    0.019468997    12.06967       12.06967       12.06967       0              0              0              0.12512281   
      7700   1.0174335      0.12780587    -0.68121912     1.15307        0.036688372    0.091820126   -0.0045645171   0.022809506    0.029646761    0.0045336405   0.004753366    11.984611      11.984611      11.984611      0              0              0              0.12780587   
      7800   1.0812808      0.13050141    -0.76327856     1.0733405      0.026433356    0.032303033    0.030128202    0.016868833   -0.0097205517   0.015423471    0.019375513    11.901522      11.901522      11.901522      0              0              0              0.13050141   
      7900   1.0323512      0.13321992    -0.69932244     1.1934259      0.042626031    0.0054852228   0.01418431     0.10820856    -0.0058587755  -0.023635711    0.016433764    11.82001       11.82001       11.82001       0              0              0              0.13321992   
      8000   1.0350606      0.13595898    -0.74032154     0.94288585     0.017103565    0.017406443   -0.012607825    0.046512076   -0.0049040023  -0.054768696    0.013585085    11.740095      11.740095      11.740095      0              0              0              0.13595898   
      8100   1.0479719      0.13871743    -0.81668289     1.3069411      0.070559995    0.084837199    0.056547814    0.070294974    0.011681417   -0.026803689   -0.010498568    11.661754      11.661754      11.661754      0              0              0              0.13871743   
      8200   1.0336455      0.14145712    -0.87320789     0.86447975     0.025072863    0.014922154    0.046441959    0.013854475   -0.015997017    0.032707109   -0.0086628546   11.585976      11.585976      11.585976      0              0              0              0.14145712   
      8300   0.91347573     0.14426777    -0.77772756     0.90281578     0.041599063    0.049241409    0.11008473    -0.034528947    0.0044155632   0.031538093    0.014181793    11.510242      11.510242      11.510242      0              0              0              0.14426777   
      8400   0.93972955     0.14705491    -0.86883779     0.45125274    -0.011023214   -0.048652712   -0.093354828    0.1089379      0.0013967792   0.0055016711   0.007005614    11.437059      11.437059      11.437059      0              0              0              0.14705491   
      8500   0.95728547     0.14994054    -0.92221719     0.95093698     0.060576742    0.026460132    0.098999393    0.0562707     -0.040280658    0.02037145    -0.010113553    11.363214      11.363214      11.363214      0              0              0              0.14994054   
      8600   0.95749204     0.15280544    -0.91646939     0.87845519     0.050824162    0.059669328    0.057331945    0.035471211    0.048322382   -0.060198136   -0.01341344     11.291751      11.291751      11.291751      0              0              0              0.15280544   
      8700   0.97443792     0.15563536    -0.91425866     0.39434106    -0.020621526   -0.085961624    0.047466091   -0.023369043    0.03708267    -0.00326389    -0.066292881    11.222892      11.222892      11.222892      0              0              0              0.15563536   
      8800   1.0636711      0.15858635    -1.0287876      1.418569       0.12396083     0.10635732     0.053860366    0.2116648     -0.034759051   -0.039213824    0.122154       11.152844      11.152844      11.152844      0              0              0              0.15858635   
      8900   1.0974893      0.16146444    -1.0901613      0.34001374    -0.030506157   -0.04460664     0.023426787   -0.070338617    0.0050636292   0.056565242   -0.0090065166   11.08618       11.08618       11.08618       0              0              0              0.16146444   
      9000   1.0783532      0.16441837    -1.1206901      0.94484791     0.068173223    0.082100761    0.074541961    0.047876948    0.033292472   -0.055838746    0.016516682    11.019387      11.019387      11.019387      0              0              0              0.16441837   
      9100   1.0385948      0.16735286    -1.17232        1.2494947      0.13262135     0.069265601    0.123732       0.20486645    -0.017727985    0.0026239064   0.054172392    10.9546        10.9546        10.9546        0              0              0              0.16735286   
      9200   0.98944245     0.17019478    -1.2072849     -0.1867706     -0.070588839   -0.014069652   -0.08444148    -0.11325538     0.0034169329  -0.089643359    0.024022215    10.893284      10.893284      10.893284      0              0              0              0.17019478   
      9300   0.93796821     0.17326489    -1.2216616      0.49978285     0.050644833   -0.0020369392   0.06851411     0.085457329   -0.026409486   -0.00020509969 -0.04475651     10.82856       10.82856       10.82856       0              0              0              0.17326489   
      9400   0.91863106     0.17640364    -1.2584123     -0.027186152   -0.02242422    -0.0087844291   0.020792924   -0.079281154    0.0078063864   0.019964849   -0.040244727    10.763951      10.763951      10.763951      0              0              0              0.17640364   
      9500   0.94378461     0.1795351     -1.3158347     -0.24813146    -0.055638787   -0.089708106    0.036475621   -0.11368388     0.043357066   -0.013388008    0.068882576    10.701002      10.701002      10.701002      0              0              0              0.1795351    
      9600   0.96886047     0.18267966    -1.3485565      0.77947007     0.11326178     0.026445059    0.19341089     0.11992939    -0.047209224    0.012109826    0.028984883    10.639246      10.639246      10.639246      0              0              0              0.18267966   
      9700   0.99676471     0.18571906    -1.3721818      0.73453951     0.10451762     0.16204615     0.072858267    0.078648454   -0.059918075    0.043003452    0.031141469    10.580887      10.580887      10.580887      0              0              0              0.18571906   
      9800   1.0475377      0.18868878    -1.4158568     -0.20228748    -0.06001686    -0.052280121   -0.054409294   -0.073361164    0.035749512   -0.047719186   -0.036875536    10.525083      10.525083      10.525083      0              0              0              0.18868878   
      9900   1.0044409      0.19181914    -1.3240405      0.53055541     0.061986858    0.0049492783   0.12326228     0.057749015   -0.02568648    -0.005328605    0.0091007264   10.467515      10.467515      10.467515      0              0              0              0.19181914   
     10000   0.99584774     0.19495307    -1.2854522      0.48974824     0.05120135     0.042181845    0.0021935278   0.10922868    -0.043770862    0.13634764     0.01649033     10.411122      10.411122      10.411122      0              0              0              0.19495307   
     10100   1.048773       0.19807298    -1.3457738      0.36755345     0.026655846    0.035716865   -0.011462078    0.055712752    0.018799853    0.008062743   -0.069676539    10.356169      10.356169      10.356169      0              0              0              0.19807298   
     10200   1.0827913      0.20131453    -1.4060952      0.038515518   -0.031378581    0.031985953   -0.0071578496  -0.11896385     0.021519166   -0.029298095   -0.080822027    10.300284      10.300284      10.300284      0              0              0              0.20131453   
     10300   1.0491197      0.20460221    -1.3871748      0.27174142     0.017317727    0.092316748    0.040008172   -0.080371738   -0.010873004   -0.026671117    0.020361202    10.244815      10.244815      10.244815      0              0              0              0.20460221   
     10400   1.0122019      0.20788629    -1.3857812     -0.044886607   -0.032093241   -0.16698315     0.069058031    0.001645398   -0.054472323   -0.040147112   -0.0068639008   10.190581      10.190581      10.190581      0              0              0              0.20788629   
     10500   0.97285328     0.21121978    -1.3787353      0.17472762     0.019485873    0.027122472   -0.049271591    0.080606737   -0.039882258    0.0080259068  -0.088836733    10.136687      10.136687      10.136687      0              0              0              0.21121978   
     10600   0.93092344     0.21450436    -1.34734       -0.051368795   -0.01821962     0.011145926   -0.042527087   -0.023277698    0.018557462   -0.056455699   -0.01760586     10.084681      10.084681      10.084681      0              0              0              0.21450436   
     10700   0.95146066     0.21789122    -1.3922492     -0.19762554    -0.044654107   -0.033729894   -0.070077739   -0.030154687   -0.033926268   -0.10694148    -0.11897755     10.032157      10.032157      10.032157      0              0              0              0.21789122   
     10800   1.0241024      0.22136078    -1.5038282      0.10134644     0.01543524     0.17094609    -0.10257019    -0.022070177    0.018968201    0.020810591    0.035006413    9.9794667      9.9794667      9.9794667      0              0              0              0.22136078   
     10900   1.0875864      0.22471326    -1.6073893      0.084756161    0.014079877   -0.048528672    0.065007232    0.02576107    -0.045921807   -0.068907789    0.034174623    9.9295902      9.9295902      9.9295902      0              0              0              0.22471326   
     11000   1.0626379      0.22814125    -1.6074583      0.23064143     0.052288452    0.060705424   -0.084141895    0.18030183     0.054158206   -0.067905855   -0.076438002    9.8796059      9.8796059      9.8796059      0              0              0              0.22814125   
     11100   1.0015247      0.23139989    -1.5669629      0.44328368     0.1084363      0.058666448    0.1685633      0.098079147    0.10179575     0.0099499225  -6.113415e-05   9.8330106      9.8330106      9.8330106      0              0              0              0.23139989   
     11200   1.0132362      0.23452192    -1.6465115      0.69663931     0.17714842     0.18231976     0.24989838     0.099227128   -0.00038411676 -0.094042163    0.0022240205   9.7891823      9.7891823      9.7891823      0              0              0              0.23452192   
     11300   0.97385313     0.23775064    -1.6638894     -0.29508555    -0.018300747   -0.075527416   -0.056051437    0.076676613    0.041281807    0.0042970352  -0.060454764    9.7446669      9.7446669      9.7446669      0              0              0              0.23775064   
     11400   0.92098224     0.24127474    -1.6455871     -0.21568346     0.012137787    0.17028967    -0.048812951   -0.085063352   -0.051656835    0.012795894    0.1234582      9.6969899      9.6969899      9.6969899      0              0              0              0.24127474   
     11500   0.94855628     0.24484296    -1.7245389      0.010366861    0.071045753    0.15883907     0.044880148    0.0094180388  -0.013767648   -0.063545943    0.033715078    9.6496528      9.6496528      9.6496528      0              0              0              0.24484296   
     11600   1.0196099      0.24841613    -1.8555801     -0.37487675    -0.0092736839  -0.15425175     0.088814359    0.037616336   -0.00614531     0.085428947   -0.068987963    9.6031629      9.6031629      9.6031629      0              0              0              0.24841613   
     11700   1.0182799      0.25210673    -1.8739295     -0.3365757      0.0040270751  -0.069030319    0.065416277    0.015695267   -0.10557371    -0.033791022   -0.050677914    9.556072       9.556072       9.556072       0              0              0              0.25210673   
     11800   1.0144242      0.25571589    -1.8905838     -0.12700474     0.058012856    0.1978536      0.0082556272  -0.032070659   -0.040970969   -0.057337756    0.019039134    9.5109009      9.5109009      9.5109009      0              0              0              0.25571589   
     11900   1.0218459      0.25922138    -1.9427104      0.082581779    0.11787202     0.11900193    -0.017050293    0.25166441    -0.011110837    0.071736712   -0.00063784086  9.4678337      9.4678337      9.4678337      0              0              0              0.25922138   
     12000   1.0543254      0.26260975    -2.0446603     -0.29459618     0.042132979   -0.15786472     0.13058577     0.15367789     0.12093508     0.13573849     0.076354664    9.4269372      9.4269372      9.4269372      0              0              0              0.26260975   
     12100   1.0295343      0.26609931    -2.0989839     -0.53869267     0.0057359545   0.11662267     0.055149892   -0.1545647      0.027767232    0.0070999802  -0.1877174      9.3855481      9.3855481      9.3855481      0              0              0              0.26609931   
     12200   1.0555955      0.2696704     -2.2292053     -0.41758812     0.057891126    0.13288724     0.099831189   -0.059045051    0.016120702   -0.0088706871   0.036099172    9.3439348      9.3439348      9.3439348      0              0              0              0.2696704    
     12300   0.98215866     0.27333941    -2.2095538     -0.24344048     0.12430519    -0.0023254101   0.21933304     0.15590794     0.020978801    0.091970484    0.12047539     9.3019388      9.3019388      9.3019388      0              0              0              0.27333941   
     12400   0.95008563     0.27680497    -2.2281135     -0.41231002     0.10010291     0.067449897    0.17504631     0.057812522   -0.0085041192   0.032149061    0.040767456    9.262956       9.262956       9.262956       0              0              0              0.27680497   
     12500   0.97892419     0.28020621    -2.3154405     -1.5395932     -0.17454225     0.017860456   -0.30805211    -0.2334351      0.08189751     0.040532419   -0.069207528    9.2253242      9.2253242      9.2253242      0              0              0              0.28020621   
     12600   0.91736042     0.28420245    -2.2547743     -0.72658241     0.041088312    0.066374856   -0.072260898    0.12915098     0.063180487   -0.01350011    -0.030290906    9.1818801      9.1818801      9.1818801      0              0              0              0.28420245   
     12700   0.93265032     0.28819992    -2.2726325     -1.5754633     -0.18204056    -0.22110518    -0.15976205    -0.16525443     0.073913453    0.01372838     0.084599567    9.13923        9.13923        9.13923        0              0              0              0.28819992   
     12800   0.94998782     0.2922331     -2.255135      -0.77888874     0.015512111   -0.096971939    0.23707568    -0.093567406    0.042069778    0.12584758    -0.046233732    9.0969909      9.0969909      9.0969909      0              0              0              0.2922331    
     12900   0.97214894     0.29618485    -2.2315159     -0.85629164    -0.020385053   -0.06363167    -0.12079858     0.12327509    -0.093272703   -0.095313502    0.057322954    9.0563517      9.0563517      9.0563517      0              0              0              0.29618485   
     13000   1.033145       0.29996547    -2.2562794      0.04527172     0.20713493     0.37559088     0.20917482     0.036639076   -0.0158243     -0.0047662738   0.019770062    9.0181434      9.0181434      9.0181434      0              0              0              0.29996547   
     13100   1.0394898      0.30348653    -2.2185431     -0.62918555     0.010461722    0.12430519    -0.036227671   -0.056692351   -0.029847849   -0.066231499   -0.065858629    8.9831314      8.9831314      8.9831314      0              0              0              0.30348653   
     13200   1.0481898      0.30723128    -2.2063101     -0.42558513     0.060413333   -0.087242105    0.15345753     0.11502458    -0.087303215    0.12981268    -0.12120402     8.9464846      8.9464846      8.9464846      0              0              0              0.30723128   
     13300   1.0889234      0.31102211    -2.2705882     -0.63769811     0.0021692066   0.14384435    -0.19830903     0.060972306    0.031476461   -0.0017165202  -0.0029381567   8.9099884      8.9099884      8.9099884      0              0              0              0.31102211   
     13400   1.0384347      0.31486865    -2.220556      -0.88148889    -0.060339307   -0.053472329   -0.18893682     0.061391228    0.037869137   -0.00081728803 -0.005109536    8.8735572      8.8735572      8.8735572      0              0              0              0.31486865   
     13500   1.0059428      0.318954      -2.2169768     -0.71425484     0.00039213811  0.031321695   -0.13022964     0.10008436    -0.061702651    0.082202749    0.065305826    8.8355084      8.8355084      8.8355084      0              0              0              0.318954     
     13600   0.99118308     0.32286948    -2.247212      -0.90359083    -0.039836082   -0.087048006   -0.033809055    0.001348814    0.022063167   -0.070170966    0.091814316    8.7996466      8.7996466      8.7996466      0              0              0              0.32286948   
     13700   0.9435423      0.3271083     -2.2389806     -1.0119394     -0.053882369   -0.1345753     -0.050633035    0.023561231    0.12549796     0.091404943   -0.047666911    8.7614712      8.7614712      8.7614712      0              0              0              0.3271083    
     13800   0.99721578     0.33122148    -2.3625294     -1.0328963     -0.047789692    0.086006098    0.039837143   -0.26921232    -0.015716115   -0.076683133    0.05608399     8.7250528      8.7250528      8.7250528      0              0              0              0.33122148   
     13900   0.95289291     0.33528895    -2.3235949     -0.76135361     0.042687969    0.098886652   -0.069718051    0.098895307   -0.0055968672   0.10438455    -0.046957144    8.6896273      8.6896273      8.6896273      0              0              0              0.33528895   
     14000   0.95029012     0.33924033    -2.3288396     -1.101459      -0.058882072   -0.049355609    0.096116925   -0.22340753    -0.017476346   -0.18546531    -0.034740824    8.6557573      8.6557573      8.6557573      0              0              0              0.33924033   
     14100   0.94570256     0.34348751    -2.3098331     -1.5245518     -0.19553174    -0.30980832    -0.17998799    -0.096798905   -0.18655458    -0.12491163    -0.016612426    8.6199334      8.6199334      8.6199334      0              0              0              0.34348751   
     14200   0.96646467     0.34780959    -2.2762974     -0.95248541    -0.037511738   -0.019789402   -0.068432982   -0.02431283     0.051929711   -0.026559022    0.11266908     8.584079       8.584079       8.584079       0              0              0              0.34780959   
     14300   0.98014336     0.35212055    -2.2018589     -0.50914873     0.073575989    0.12203336     0.08021151     0.018483093    0.15998099     0.015956747   -0.012952462    8.5489039      8.5489039      8.5489039      0              0              0              0.35212055   
     14400   1.0440718      0.3561361     -2.2088626     -0.91035953    -0.084104458   -0.14440761    -0.0651462     -0.042759565    0.074005614   -0.031644508   -0.16842569     8.5166519      8.5166519      8.5166519      0              0              0              0.3561361    
     14500   1.0876846      0.36006829    -2.2390801     -0.60757641     0.0026627052  -0.027117859    0.059478321   -0.024372347    0.010283919    0.1892656      0.040335971    8.4855358      8.4855358      8.4855358      0              0              0              0.36006829   
     14600   1.0431022      0.36410637    -2.1875515     -1.0160269     -0.12753832    -0.23527584    -0.088739515   -0.058599598   -0.21190166     0.065177847   -0.0094445404   8.4540498      8.4540498      8.4540498      0              0              0              0.36410637   
     14700   1.0225501      0.36843152    -2.189671      -0.34523348     0.10660447     0.054843047    0.097758553    0.1672118      0.016411561   -0.039576296   -0.062571218    8.4208378      8.4208378      8.4208378      0              0              0              0.36843152   
     14800   1.0425351      0.37281774    -2.2679921     -1.3313287     -0.20990329    -0.065748911   -0.33156316    -0.2323978      0.11662631    -0.19371189     0.016569137    8.3876835      8.3876835      8.3876835      0              0              0              0.37281774   
     14900   1.0517366      0.3772208     -2.3314825     -0.9835142     -0.076043781   -0.063115636   -0.1162184     -0.04879731     0.02847192     0.11162182    -0.059570505    8.354921       8.354921       8.354921       0              0              0              0.3772208    
     15000   1.0083197      0.38169119    -2.3302285     -0.89028255    -0.022544459   -0.11331331    -0.011841276    0.05752121    -0.0022763201  -0.19829121     0.062755509    8.3221751      8.3221751      8.3221751      0              0              0              0.38169119   
     15100   1.0124497      0.38599466    -2.3794897     -0.88905796    -0.0072459793   0.096519287   -0.042466724   -0.075790501   -0.0099878103  -0.10859967     0.1723469      8.2911314      8.2911314      8.2911314      0              0              0              0.38599466   
     15200   0.98341827     0.39019668    -2.3748481     -0.60583497     0.10686471     0.0099368424   0.12276491     0.18789238     0.0026152677  -0.063669704   -0.19433183     8.2612615      8.2612615      8.2612615      0              0              0              0.39019668   
     15300   0.95786728     0.39429974    -2.356564      -0.83562497     0.032734798   -0.023141852    0.069194967    0.052151281   -0.027750124   -0.010738584   -0.22189866     8.2325061      8.2325061      8.2325061      0              0              0              0.39429974   
     15400   0.97963591     0.39847018    -2.3893871     -1.6688868     -0.26864363    -0.1791909     -0.36468768    -0.26205232     0.045575757   -0.050656864   -0.027812698    8.2036845      8.2036845      8.2036845      0              0              0              0.39847018   
     15500   0.9477889      0.40324993    -2.3384367     -1.0314396     -0.039437069   -0.047370811   -0.092818859    0.021878464   -0.050394586    0.0020254109   0.028749558    8.1711426      8.1711426      8.1711426      0              0              0              0.40324993   
     15600   0.98409473     0.40796547    -2.3801238     -0.94680265    -0.013143978    0.0076871846  -0.021662267   -0.025456851    0.10215955    -0.20966263    -0.1155146      8.1395381      8.1395381      8.1395381      0              0              0              0.40796547   
     15700   1.033098       0.4125691     -2.4400973     -0.44054287     0.17164964     0.18635358     0.26214186     0.066453473   -0.026958656    0.18566631     0.11401433     8.1091499      8.1091499      8.1091499      0              0              0              0.4125691    
     15800   1.0626318      0.41690138    -2.4795709     -1.3869109     -0.18696818    -0.22697049    -0.183021      -0.15091303     0.24046865     0.1537941     -0.289126       8.080963       8.080963       8.080963       0              0              0              0.41690138   
     15900   1.0771173      0.42139438    -2.506596      -1.5708011     -0.25735805    -0.48914724     0.00063455594 -0.28356146    -0.078724192    0.051839785    0.16224088     8.0521399      8.0521399      8.0521399      0              0              0              0.42139438   
     16000   0.93104647     0.42613724    -2.3063359     -0.13775518     0.30178026     0.31110333     0.31264206     0.28159538    -0.015693206    0.029963298    0.035844629    8.0221553      8.0221553      8.0221553      0              0              0              0.42613724   
     16100   0.96429614     0.43052343    -2.3697098     -0.87756807     0.02071589    -0.029703815    0.051243584    0.040607902   -0.0026290888   0.1281084     -0.30205954     7.9948189      7.9948189      7.9948189      0              0              0              0.43052343   
     16200   0.99259583     0.43490538    -2.4116464     -1.1679028     -0.093981361   -0.097406598   -0.33155624     0.14701876    -0.014166147    0.12780257    -0.061911518    7.9678772      7.9678772      7.9678772      0              0              0              0.43490538   
     16300   1.0251782      0.43936843    -2.4535255     -0.72581439     0.078939596    0.15556882     0.084127545   -0.0028775769  -0.051351931    0.027446091    0.12154244     7.9408064      7.9408064      7.9408064      0              0              0              0.43936843   
     16400   0.99768745     0.44391032    -2.4066277     -1.0164916     -0.039916584    0.076643695   -0.05157054    -0.14482291     0.01681835    -0.21111391    -0.15500961     7.9136313      7.9136313      7.9136313      0              0              0              0.44391032   
     16500   1.0329082      0.4488        -2.4438201     -1.4182989     -0.21056648    -0.21634523    -0.29092918    -0.12442502    -0.12231374     0.092669574    0.1602844      7.8847866      7.8847866      7.8847866      0              0              0              0.4488       
     16600   1.1350326      0.45358688    -2.5657129     -0.89925554    -0.011372193    0.019982828   -0.15885955     0.10476014     0.09192763     0.076812703    0.2913432      7.8569514      7.8569514      7.8569514      0              0              0              0.45358688   
     16700   1.2151136      0.45816609    -2.70178       -0.86128652     0.011219459    0.056553146   -0.075331938    0.052437168    0.021626355   -0.064803479    0.04134621     7.8306878      7.8306878      7.8306878      0              0              0              0.45816609   
     16800   1.0011651      0.4626192     -2.4658308     -1.038268      -0.028041471   -0.34072705     0.12399967     0.13260297    -0.030204157   -0.066740179   -0.031210571    7.8054811      7.8054811      7.8054811      0              0              0              0.4626192    
     16900   1.0118867      0.46700278    -2.5800535     -1.6544913     -0.24822414    -0.060727024   -0.19081955    -0.49312585     0.055686505   -0.084209285   -0.16071615     7.7809819      7.7809819      7.7809819      0              0              0              0.46700278   
     17000   1.0278196      0.47207933    -2.7001132     -1.2431625     -0.033075621   -0.10150178     0.047401676   -0.045126759   -0.050491805   -0.046608187    0.12031856     7.7529901      7.7529901      7.7529901      0              0              0              0.47207933   
     17100   0.97747094     0.47743225    -2.6942929     -1.4901836     -0.11057594    -0.18688837    -0.1411308     -0.0037086396   0.16179522    -0.18091679     0.22416884     7.723906       7.723906       7.723906       0              0              0              0.47743225   
     17200   0.98413764     0.48248951    -2.7451651     -0.87486133     0.17609915    -0.12184902     0.60087976     0.049266713    0.027837642   -0.28094117    -0.030484536    7.6968248      7.6968248      7.6968248      0              0              0              0.48248951   
     17300   0.99417865     0.4868546     -2.7896128     -1.6083061     -0.13388721    -0.24654692    -0.27942454     0.12430981    -0.13083645     0.079273296   -0.0053537885   7.6737527      7.6737527      7.6737527      0              0              0              0.4868546    
     17400   0.95139112     0.49173749    -2.7537691     -1.1400071      0.086640028    0.20059246     0.072262868   -0.012935244   -0.22432986     0.18837842    -0.14506765     7.6482684      7.6482684      7.6482684      0              0              0              0.49173749   
     17500   1.0016009      0.49648419    -2.8458293     -1.6099676     -0.11691187    -0.21891003     0.0064354017  -0.13826097     0.058330484    0.152505      -0.056968035    7.6238162      7.6238162      7.6238162      0              0              0              0.49648419   
     17600   0.98357365     0.50137031    -2.8328794     -1.4575273     -0.042220632    0.069584724    0.12010038    -0.316347       0.19949237    -0.053997614    0.30131169     7.5989693      7.5989693      7.5989693      0              0              0              0.50137031   
     17700   0.98814967     0.50627995    -2.8524797     -1.3338964      0.020145294    0.030309774   -0.10043465     0.13056076    -0.0057665604  -0.041663115    0.051580512    7.5743258      7.5743258      7.5743258      0              0              0              0.50627995   
     17800   0.98839365     0.51119148    -2.8646379     -1.6959404     -0.14242726    -0.12350741    -0.12740429    -0.17637008     0.0014114773   0.20273123     0.026817536    7.5499897      7.5499897      7.5499897      0              0              0              0.51119148   
     17900   0.95946564     0.51583277    -2.8332145     -1.3910793      0.0047516502   0.45991034    -0.46057544     0.01492005    -0.1055745      0.10117614     0.012387609    7.5272774      7.5272774      7.5272774      0              0              0              0.51583277   
     18000   1.0013422      0.52039004    -2.9058413     -1.2343815      0.083714953    0.022699021    0.25040578    -0.021959938    0.11500868    -0.31692387     0.26593443     7.5052397      7.5052397      7.5052397      0              0              0              0.52039004   
     18100   0.98056468     0.52542993    -2.9013102     -1.7495926     -0.14892363    -0.17100314    -0.25445921    -0.021308542   -0.060169243    0.028688212   -0.066932941    7.481166       7.481166       7.481166       0              0              0              0.52542993   
     18200   0.99278478     0.53043833    -2.9452218     -1.8708109     -0.19641669    -0.0053979396  -0.28229438    -0.30155774     0.29549074    -0.048183929   -0.22400454     7.4575458      7.4575458      7.4575458      0              0              0              0.53043833   
     18300   1.0094236      0.53582628    -3.020894      -1.233396       0.13684677    -0.050983674    0.36362842     0.097895551   -0.20575849     0.18305379    -0.10352077     7.4324653      7.4324653      7.4324653      0              0              0              0.53582628   
     18400   0.9901589      0.54080769    -3.0440112     -2.4754039     -0.44700453    -0.35598776    -0.12401783    -0.86100799     0.14469624    -0.0055244391  -0.10807778     7.4095746      7.4095746      7.4095746      0              0              0              0.54080769   
     18500   0.94630227     0.54626448    -3.0167692     -1.6320853     -0.01374217    -0.46268971     0.30457174     0.11689146     0.055503009    0.037611033   -0.10656134     7.3848198      7.3848198      7.3848198      0              0              0              0.54626448   
     18600   0.92356181     0.55138918    -2.9951432     -2.149729      -0.26717405    -0.25520502    -0.12767481    -0.41864231     0.19114671    -0.0010259393   0.038383762    7.36187        7.36187        7.36187        0              0              0              0.55138918   
     18700   0.96858862     0.5572808     -3.0475703     -1.956383      -0.17956151    -0.29573844    -0.041899585   -0.20104651    -0.11688369     0.063675586    0.039751911    7.3358346      7.3358346      7.3358346      0              0              0              0.5572808    
     18800   0.9966723      0.56351342    -3.0397058     -2.2353578     -0.3499856     -0.35202224    -0.5184278     -0.17950675    -0.073673145   -0.13470995    -0.1162288      7.3086889      7.3086889      7.3086889      0              0              0              0.56351342   
     18900   1.0790996      0.56965697    -3.0866993     -1.6715872     -0.10121462    -0.24298925     0.17286948    -0.2335241      0.28953823    -0.22226192     0.45575614     7.2823199      7.2823199      7.2823199      0              0              0              0.56965697   
     19000   1.1118072      0.5754439     -3.0881691     -1.2195589      0.10945883     0.23490532     0.082894372    0.01057679     0.0083201467  -0.00068994051 -0.24095801     7.2578262      7.2578262      7.2578262      0              0              0              0.5754439    
     19100   1.0619143      0.58051       -3.0076416     -1.5141418     -0.048239014   -0.17047407    -0.063986886    0.089743915    0.25741748    -0.10781501     0.067159502    7.2366515      7.2366515      7.2366515      0              0              0              0.58051      
     19200   1.117799       0.58537136    -3.1347777     -1.9190421     -0.24084274    -0.10240571     0.013370025   -0.63349252     0.046400705    0.28870499     0.11538816     7.216563       7.216563       7.216563       0              0              0              0.58537136   
     19300   0.97864188     0.59077248    -3.0402087     -1.6504162     -0.038040653   -0.11920528     0.0033154226   0.0017678966  -0.17724397     0.029224589   -0.071696757    7.1945031      7.1945031      7.1945031      0              0              0              0.59077248   
     19400   0.97654742     0.59630974    -3.1553459     -2.1389311     -0.23911057    -0.25572286    -0.2400812     -0.22152766     0.19433199     0.071538997   -0.078204021    7.1721648      7.1721648      7.1721648      0              0              0              0.59630974   
     19500   1.0130273      0.60229016    -3.2616826     -2.4261377     -0.37035278    -0.55923327    -0.040303765   -0.51152131    -0.06628329    -0.032696598    0.019499029    7.1483472      7.1483472      7.1483472      0              0              0              0.60229016   
     19600   1.0204646      0.6085193     -3.297607      -1.7940778     -0.010795268    0.24638075    -0.34764478     0.068878234    0.33574762    -0.077870953    0.01948035     7.123872       7.123872       7.123872       0              0              0              0.6085193    
     19700   1.0155651      0.61413716    -3.3062324     -2.2300839     -0.24542172    -0.28535479    -0.051224546   -0.39968582     0.13256969     0.1703114     -0.31414021     7.1020834      7.1020834      7.1020834      0              0              0              0.61413716   
     19800   0.98902578     0.62001335    -3.2841873     -1.8901584     -0.046271087   -0.065469976   -0.17637294     0.10302965     0.14380914     0.19396127     0.20669075     7.0795754      7.0795754      7.0795754      0              0              0              0.62001335   
     19900   0.99860975     0.62555151    -3.3264559     -0.90984012     0.52670912     0.71858432     0.38964037     0.47190268    -0.17790248     0.12506033     0.26602402     7.0586211      7.0586211      7.0586211      0              0              0              0.62555151   
     20000   0.95143695     0.62984919    -3.2872556     -2.0344238     -0.095730102   -0.48983818    -0.25549414     0.45814202     0.26265369    -0.11291646    -0.050834859    7.04253        7.04253        7.04253        0              0              0              0.62984919   
     20100   1.016047       0.6347538     -3.4152539     -2.3623905     -0.26751221     0.045377556   -0.73035274    -0.11756144    -0.21388401     0.11296361    -0.10959649     7.0243443      7.0243443      7.0243443      0              0              0              0.6347538    
     20200   1.0054082      0.64043079    -3.4487248     -2.2773557     -0.19166499    -0.048117122   -0.074861262   -0.45201658     0.12709868    -0.023001706   -0.32847575     7.0035273      7.0035273      7.0035273      0              0              0              0.64043079   
     20300   0.98035504     0.64647527    -3.4629391     -2.1080095     -0.063619234   -0.40964769     0.27383074    -0.055040749   -0.0032315522   0.13499559     0.0039422803   6.9816315      6.9816315      6.9816315      0              0              0              0.64647527   
     20400   0.92577154     0.65268644    -3.4364803     -2.6217351     -0.33641175    -0.055533405   -0.5704406     -0.38326124     0.012098341   -0.12616164    -0.18012067     6.9594144      6.9594144      6.9594144      0              0              0              0.65268644   
     20500   0.95695732     0.6589068     -3.5276689     -2.7749368     -0.40464462    -0.17436025    -1.0059418     -0.033631813   -0.079941079    0.26431664     0.022178973    6.9374452      6.9374452      6.9374452      0              0              0              0.6589068    
     20600   0.89222563     0.66533328    -3.4686047     -2.254849      -0.071306185    0.15337546     0.022844806   -0.39013883     0.049217119    0.30342426    -0.058144783    6.9150365      6.9150365      6.9150365      0              0              0              0.66533328   
     20700   0.94171033     0.67168481    -3.5546485     -3.0596907     -0.55599925    -0.69265569    -0.38031013    -0.59503193    -0.11742621    -0.021421695    0.22111077     6.893171       6.893171       6.893171       0              0              0              0.67168481   
     20800   0.9727477      0.67859755    -3.5673353     -2.2200824     -0.06451182    -0.15720359    -0.28408345     0.24775158     0.30625035     0.32270246     0.30878948     6.8696846      6.8696846      6.8696846      0              0              0              0.67859755   
     20900   1.1180318      0.68468553    -3.7014531     -2.4563277     -0.26362698    -0.058390074   -0.81583859     0.083347708   -0.032241453    0.031443266   -0.17223768     6.849263       6.849263       6.849263       0              0              0              0.68468553   
     21000   1.0714028      0.6905226     -3.5602293     -2.16489       -0.12789074    -0.53045492     0.037917571    0.10886514    -0.17872223     0.28307938     0.083734449    6.8299092      6.8299092      6.8299092      0              0              0              0.6905226    
     21100   1.1463051      0.69615272    -3.6449015     -1.7180516      0.13669241    -0.26857571     0.37677176     0.3018812     -0.12474203    -0.30302748    -0.32185639     6.8114471      6.8114471      6.8114471      0              0              0              0.69615272   
     21200   1.0329145      0.70087071    -3.4975252     -1.2134322      0.47306747     0.70433354     0.032551948    0.68231692    -0.042243964   -0.096123902   -0.29773942     6.7961286      6.7961286      6.7961286      0              0              0              0.70087071   
     21300   1.0674052      0.70454596    -3.6162914     -1.6999069      0.20706107     0.16567621     0.12158647     0.33392054    -0.052925296    0.31034156     0.35480804     6.7842907      6.7842907      6.7842907      0              0              0              0.70454596   
     21400   1.0619093      0.70887551    -3.7195679     -2.6755733     -0.34857663     0.029448232   -0.61347165    -0.46170648     0.63539077    -0.15384094    -0.10102725     6.7704505      6.7704505      6.7704505      0              0              0              0.70887551   
     21500   1.0498987      0.71393541    -3.7720763     -2.5994909     -0.25597079    -0.0093879656  -0.63300794    -0.12551646     0.043612487   -0.18169531    -0.29489791     6.7544178      6.7544178      6.7544178      0              0              0              0.71393541   
     21600   0.95853981     0.71875773    -3.6720349     -2.1341917      0.070060888    0.23276201    -0.22299604     0.2004167      0.05239451     0.15384725     0.082886197    6.7392782      6.7392782      6.7392782      0              0              0              0.71875773   
     21700   1.0421772      0.72358862    -3.8089699     -1.6756149      0.38015073     0.12096426     0.53261625     0.48687166     0.16177158     0.012934154   -0.19790711     6.7242469      6.7242469      6.7242469      0              0              0              0.72358862   
     21800   1.0247339      0.72794876    -3.7956743     -2.1552949      0.073432838    0.38399493    -0.24709459     0.083398175    0.15636646    -0.31450676     0.4017198      6.7107948      6.7107948      6.7107948      0              0              0              0.72794876   
     21900   1.0546878      0.73228765    -3.8576919     -2.2178207      0.043770593   -0.041830447    0.043718782    0.12942345     0.27125548     0.029519271   -0.29063111     6.6975144      6.6975144      6.6975144      0              0              0              0.73228765   
     22000   1.068976       0.73695415    -3.9093137     -2.2256329      0.059113148   -0.16729291     0.13192926     0.21270309     0.29837873    -0.14924847    -0.16851669     6.6833479      6.6833479      6.6833479      0              0              0              0.73695415   
     22100   0.97113634     0.74179326    -3.8189921     -1.730587       0.43090377     0.41939785     0.24896685     0.6243466      0.17788995    -0.19905423     0.15202457     6.6687832      6.6687832      6.6687832      0              0              0              0.74179326   
     22200   1.0192016      0.74658488    -3.959512      -2.5930728     -0.10500991     0.089856774   -0.10720195    -0.29768457     0.18739017    -0.4715017     -0.32133223     6.6544857      6.6544857      6.6544857      0              0              0              0.74658488   
     22300   0.97181587     0.7523053     -3.9578031     -2.1478872      0.24585388     0.37813625     0.28345396     0.07597142     0.16786078     0.010844298   -0.07496198     6.6375762      6.6375762      6.6375762      0              0              0              0.7523053    
     22400   0.97419594     0.75771873    -4.0159909     -2.3267604      0.16204373     0.083467164    0.1805031      0.22216094    -0.31711923    -0.055936448   -0.057642749    6.6217313      6.6217313      6.6217313      0              0              0              0.75771873   
     22500   0.96057436     0.76204767    -4.01629       -2.238236       0.23858796     0.83871843     0.06744615    -0.19040069     0.42065626    -0.24469031     0.24979156     6.6091688      6.6091688      6.6091688      0              0              0              0.76204767   
     22600   0.975716       0.76606437    -4.034036      -1.732254       0.58884294     0.48000808     0.72533167     0.56118908     0.16796604     0.022086687    0.079820488    6.5975973      6.5975973      6.5975973      0              0              0              0.76606437   
     22700   1.0236506      0.76962465    -4.09515       -2.1689832      0.27872184     0.26351553     0.24574558     0.32690439     0.17202525     0.68323726     0.19785932     6.5874081      6.5874081      6.5874081      0              0              0              0.76962465   
     22800   0.98530961     0.77313083    -4.0263766     -1.8122346      0.52261355     0.45362968     0.53879388     0.5754171      0.12602378     0.15774017    -0.033119296    6.577435       6.577435       6.577435       0              0              0              0.77313083   
     22900   0.98942105     0.77644244    -4.0325634     -1.5965357      0.67714029     1.2004381      0.32822212     0.50276065    -0.022580247   -0.031854399   -0.039876398    6.5680705      6.5680705      6.5680705      0              0              0              0.77644244   
     23000   1.0177707      0.77931778    -4.071815      -1.9783269      0.40699189     0.63488981     0.15053588     0.43554997    -0.15438502    -0.46961345     0.070542979    6.5599828      6.5599828      6.5599828      0              0              0              0.77931778   
     23100   1.023762       0.78207258    -4.0815543     -2.1548917      0.28346416     0.017099663    0.058023802    0.77526903     0.29726899    -0.35514305    -0.047381699    6.5522713      6.5522713      6.5522713      0              0              0              0.78207258   
     23200   1.0346804      0.78492093    -4.1058538     -1.6693143      0.63669861     1.1630055      1.0055366     -0.25844624    -0.33868998     0.32439387     0.29893268     6.544336       6.544336       6.544336       0              0              0              0.78492093   
     23300   0.9855         0.78759491    -4.0509309     -1.8128208      0.54934839     0.95484114     0.41442016     0.27878388     0.088374974    0.058164117   -0.04095501     6.5369214      6.5369214      6.5369214      0              0              0              0.78759491   
     23400   1.0523432      0.79012691    -4.1741404     -1.88125        0.51880324     0.83550533    -0.10788735     0.82879174     0.060018014    0.059214483   -0.12167072     6.5299313      6.5299313      6.5299313      0              0              0              0.79012691   
     23500   1.0302602      0.79270002    -4.1757301     -1.9494788      0.49622155     0.37464869     0.65101        0.46300596     0.21471341    -0.018102162   -0.28327565     6.5228582      6.5228582      6.5228582      0              0              0              0.79270002   
     23600   1.0552352      0.79505336    -4.2523476     -2.0611723      0.44540101     0.28772413     0.41839835     0.63008055    -0.23611397     0.26267433    -0.091310523    6.516416       6.516416       6.516416       0              0              0              0.79505336   
     23700   0.96597274     0.79758375    -4.172826      -1.7612171      0.70324736     0.8438336      0.71844359     0.54746488     0.06372777    -0.13054937     0.32616421     6.5095174      6.5095174      6.5095174      0              0              0              0.79758375   
     23800   0.91228602     0.80018407    -4.1387685     -1.8967709      0.64044609     0.49262026     0.99758461     0.43113341     0.44847903     0.22930637     0.094092148    6.5024586      6.5024586      6.5024586      0              0              0              0.80018407   
     23900   0.9791574      0.80319273    -4.2806531     -2.2121103      0.44332612     0.10173746     0.6613505      0.5668904      0.010101156    0.358392      -0.36712678     6.4943293      6.4943293      6.4943293      0              0              0              0.80319273   
     24000   0.97727244     0.80613294    -4.3003576     -2.1307671      0.52106339     0.87623435     0.59605253     0.090903281    0.11464903     0.44229826     0.13237645     6.4864241      6.4864241      6.4864241      0              0              0              0.80613294   
     24100   0.92864678     0.80887473    -4.2389633     -1.4594841      1.024678       0.68428906     0.77555137     1.6141937      0.090280101    0.027908943    0.35586638     6.4790869      6.4790869      6.4790869      0              0              0              0.80887473   
     24200   1.0352206      0.810778      -4.3832451     -2.2968059      0.39902989     0.36469564     0.60352631     0.2288677     -0.11611445     0.16972872     0.086108233    6.4740131      6.4740131      6.4740131      0              0              0              0.810778     
     24300   1.0440437      0.81290797    -4.3482151     -2.5960055      0.14334849     0.45240679     0.058677742   -0.081039059    0.15633196     0.18072473    -0.1211901      6.4683538      6.4683538      6.4683538      0              0              0              0.81290797   
     24400   1.0643765      0.81573997    -4.3135569     -1.7381728      0.73179457     0.77461685     0.46433333     0.95643352     0.19675053     0.10071397     0.59848916     6.4608597      6.4608597      6.4608597      0              0              0              0.81573997   
     24500   1.0431043      0.81736878    -4.2233982     -1.1952877      1.093251       1.3474923      0.53269932     1.3995614     -0.12169459    -0.032311188    0.0057787973   6.4565653      6.4565653      6.4565653      0              0              0              0.81736878   
     24600   1.1433886      0.81829587    -4.3373957     -2.0790632      0.41050557    -0.2198221      0.58846213     0.86287669    -0.2201105     -0.0063155966  -0.36071313     6.454126       6.454126       6.454126       0              0              0              0.81829587   
     24700   1.1595379      0.81948049    -4.369899      -1.7207553      0.68429105     1.0626074      0.72384237     0.26642342     0.19838077    -0.083204391   -0.17583891     6.4510145      6.4510145      6.4510145      0              0              0              0.81948049   
     24800   1.0217161      0.82027924    -4.2284607     -0.9155189      1.3333494      1.2108721      1.52639        1.262786      -0.15511183     0.41421869    -0.048454223    6.4489199      6.4489199      6.4489199      0              0              0              0.82027924   
     24900   1.0141978      0.82047439    -4.3013526     -2.2977569      0.36541358    -0.057728408    0.5940435      0.55992565     0.21079594     0.31804771     0.082714809    6.4484086      6.4484086      6.4484086      0              0              0              0.82047439   
     25000   0.99324113     0.82224381    -4.3464051     -1.7855301      0.80614473     0.51600844     0.71023188     1.1921939     -0.31512981    -0.10697521     0.26878916     6.4437798      6.4437798      6.4437798      0              0              0              0.82224381   
     25100   0.97388453     0.82443065    -4.3632766     -2.0590002      0.63762495     0.35223758     0.72508208     0.83555518     0.16599835     0.82256185    -0.097818114    6.4380773      6.4380773      6.4380773      0              0              0              0.82443065   
     25200   0.96231973     0.82685278    -4.3663493     -1.8123458      0.84018868     0.73121854     0.10038641     1.6889611     -0.1392481     -0.12334873     0.38709665     6.4317847      6.4317847      6.4317847      0              0              0              0.82685278   
     25300   0.97776711     0.82922421    -4.4012038     -2.0484032      0.67354354     0.90460803     0.6244972      0.49152539     0.22799139    -0.28619663    -0.61826754     6.4256476      6.4256476      6.4256476      0              0              0              0.82922421   
     25400   0.99494824     0.83062657    -4.4189997     -1.4698732      1.105614       0.57030655     0.68321988     2.0633155     -0.031626361    0.008650288    0.29789558     6.4220294      6.4220294      6.4220294      0              0              0              0.83062657   
     25500   0.95298229     0.83094515    -4.339464      -1.2674886      1.2461529      1.6464776      1.1013312      0.99064976    -0.30690877    -0.30059897     0.70679418     6.4212085      6.4212085      6.4212085      0              0              0              0.83094515   
     25600   1.0324322      0.83092368    -4.4260359     -2.2159934      0.50545655     0.67227418     0.25929118     0.5848043     -0.03665554     0.29949844    -0.081261872    6.4212638      6.4212638      6.4212638      0              0              0              0.83092368   
     25700   1.0317904      0.83217613    -4.3894908     -1.9786432      0.65885689     0.58046638     0.43475586     0.96134844     0.85546258    -0.48901551    -0.74026413     6.4180408      6.4180408      6.4180408      0              0              0              0.83217613   
     25800   1.0514747      0.83348304    -4.3721566     -1.6877145      0.84493667     1.2263451     -0.27879411     1.587259      -0.064110408    0.4226348     -0.12034146     6.4146846      6.4146846      6.4146846      0              0              0              0.83348304   
     25900   1.108342       0.83478594    -4.4019292     -2.0320681      0.54311224     0.33044676     0.54228112     0.75660883     0.5414129     -0.35248579    -0.71890635     6.4113456      6.4113456      6.4113456      0              0              0              0.83478594   
     26000   1.153599       0.83671052    -4.4199564     -1.1430002      1.1829639      0.8738215      0.92939894     1.7456713      0.17056356     0.085512995    0.23323594     6.406426       6.406426       6.406426       0              0              0              0.83671052   
     26100   1.040715       0.83728458    -4.2467627     -0.82949208     1.4188194      1.9660638      1.3174118      0.97298275    -0.38597854     0.13605398     0.084539973    6.4049616      6.4049616      6.4049616      0              0              0              0.83728458   
     26200   1.1020942      0.83616948    -4.3848945     -0.72970032     1.5281518      1.6036656      1.43983        1.5409598      0.034742117   -0.073168906   -0.33890839     6.4078075      6.4078075      6.4078075      0              0              0              0.83616948   
     26300   1.0829056      0.83434048    -4.4561768     -1.3549888      1.1263228      0.90351653     1.2088336      1.2666182     -0.205159      -0.19085075    -0.35342198     6.4124864      6.4124864      6.4124864      0              0              0              0.83434048   
     26400   1.011003       0.83379429    -4.4502269     -2.7749085      0.12612764     0.22091326    -0.091292351    0.24876201     0.46714932    -0.26908422    -0.0048273363   6.4138863      6.4138863      6.4138863      0              0              0              0.83379429   
     26500   0.97819674     0.83571835    -4.4645179     -2.7677338      0.1799267      0.11006974     0.36543421     0.064276142    0.47025251     0.17569946     0.64956171     6.4089603      6.4089603      6.4089603      0              0              0              0.83571835   
     26600   0.96792927     0.83787676    -4.4658554     -2.1334851      0.67619381     0.65042556     0.050977417    1.3271785      0.014698178    0.28790027    -0.65939991     6.4034523      6.4034523      6.4034523      0              0              0              0.83787676   
     26700   1.0122505      0.83991812    -4.5356066     -2.130118       0.68316248     0.93325776     0.41916829     0.69706138     0.075913503    0.26561547     0.023204348    6.3982604      6.3982604      6.3982604      0              0              0              0.83991812   
     26800   0.88629347     0.84191746    -4.3427313     -1.2887261      1.3250343      1.6551866      1.072911       1.2470054      0.18512176    -0.16192014     0.31610887     6.3931916      6.3931916      6.3931916      0              0              0              0.84191746   
     26900   0.97970322     0.84321615    -4.4479954     -2.0024814      0.75376387     1.5283355      0.13816683     0.59478924     0.19861122     0.11879411    -0.36191905     6.3899078      6.3899078      6.3899078      0              0              0              0.84321615   
     27000   1.0614293      0.84465517    -4.511964      -1.6990299      0.94351888     1.3366097     -0.080233721    1.5741807     -0.013853619   -0.054405465    0.53205908     6.3862769      6.3862769      6.3862769      0              0              0              0.84465517   
     27100   1.0525009      0.84570977    -4.4428618     -1.8244792      0.80536561     0.65879063     0.74799712     1.0093091     -0.21356222    -0.2178373      0.21378378     6.3836212      6.3836212      6.3836212      0              0              0              0.84570977   
     27200   1.0712499      0.84602071    -4.42136       -1.8493796      0.7484514      0.38961169     1.2071707      0.64857183     0.2935297     -0.11016345    -0.012127212    6.3828391      6.3828391      6.3828391      0              0              0              0.84602071   
     27300   0.99849883     0.84547153    -4.2820467     -0.6974895      1.6096991      1.6591073      1.3020605      1.8679296     -0.0091838718  -0.17499788    -0.3960338      6.3842208      6.3842208      6.3842208      0              0              0              0.84547153   
     27400   1.0736062      0.84352522    -4.3593783     -0.97056323     1.3699293      1.4184727      0.50539245     2.1859228      0.099085094   -0.28820368    -0.22256993     6.3891272      6.3891272      6.3891272      0              0              0              0.84352522   
     27500   1.0696853      0.84177351    -4.3182508     -1.4684305      0.95909757     0.89283551     0.27274441     1.7117128      0.38180299    -0.097676023   -0.35676148     6.393556       6.393556       6.393556       0              0              0              0.84177351   
     27600   1.045494       0.84050548    -4.2706135     -0.84449812     1.4255857      2.1156711      1.496168       0.66491797    -0.7647128      0.1752302      0.21658631     6.3967696      6.3967696      6.3967696      0              0              0              0.84050548   
[...]
    136000   0.093272164    0.2708962     -5.0570011     -5.8280969     -0.22418003    -0.075932894   -0.37861497    -0.21799223    -0.030561756    0.0079063908   0.073491977    23.101149      5.9291589      5.9291589      0              0              0              0.2708962    
    137000   0.1067687      0.26820074    -5.0585205     -5.3868233     -0.11889949     0.11994563    -0.30228539    -0.17435871    -0.024964621   -0.0046934237   0.10531818     23.33332       5.9291589      5.9291589      0              0              0              0.26820074   
    138000   0.097822094    0.2655321     -5.0500571     -5.5306227     -0.15124832     0.016571092   -0.31006804    -0.160248      -0.0016783583   0.042926647   -0.018912202    23.567823      5.9291589      5.9291589      0              0              0              0.2655321    
    139000   0.099858679    0.26289001    -5.0618097     -5.6477149     -0.17564501    -0.0049980521  -0.34749961    -0.17443738    -0.034690944   -0.021514034    0.066196754    23.804684      5.9291589      5.9291589      0              0              0              0.26289001   
    140000   0.10474484     0.26027421    -5.0616093     -5.8578096     -0.22538139    -0.052956807   -0.35078664    -0.27240072    -0.041354612   -0.042712291    0.10291017     24.043925      5.9291589      5.9291589      0              0              0              0.26027421   
    141000   0.093593473    0.25768444    -5.0681998     -5.8709095     -0.22076479    -0.050411831   -0.36087836    -0.25100419     0.031436915   -0.018509294    0.0030455825   24.28557       5.9291589      5.9291589      0              0              0              0.25768444   
    142000   0.09097335     0.25512044    -5.0492518     -6.0166832     -0.25586473    -0.11135195    -0.44157497    -0.21466727     0.04533805     0.0016527      0.032048734    24.529644      5.9291589      5.9291589      0              0              0              0.25512044   
    143000   0.10184512     0.25258195    -5.0577349     -5.6017711     -0.15982469     0.059531691   -0.36579596    -0.17320981     0.030012074   -0.012702446    0.058071973    24.776171      5.9291589      5.9291589      0              0              0              0.25258195   
    144000   0.095865903    0.25006871    -5.0524575     -5.2632935     -0.080457551    0.13857376    -0.27586047    -0.10408595    -0.020889758   -0.041339516    0.034616529    25.025176      5.9291589      5.9291589      0              0              0              0.25006871   
    145000   0.095616237    0.24758049    -5.072766      -5.6052056     -0.15195742     0.0087393527  -0.3150863     -0.14952532    -0.0048328649  -0.056734562    0.039421359    25.276683      5.9291589      5.9291589      0              0              0              0.24758049   
    146000   0.10561943     0.24511702    -5.0660292     -5.5569144     -0.14451259    -0.027348649   -0.26732965    -0.13885947    -0.022916272    0.014187454    0.10268843     25.530718      5.9291589      5.9291589      0              0              0              0.24511702   
    147000   0.094353711    0.24267807    -5.0731596     -5.7244003     -0.17474224    -0.01146103    -0.29261002    -0.22015567     0.0089665066  -0.033677875    0.0041156419   25.787306      5.9291589      5.9291589      0              0              0              0.24267807   
    148000   0.093715134    0.24026338    -5.0531013     -5.7695111     -0.18702968    -0.0553635     -0.33644245    -0.16928308    -0.019311496   -0.0046546292   0.045357215    26.046473      5.9291589      5.9291589      0              0              0              0.24026338   
    149000   0.096163324    0.23787272    -5.0558386     -5.5888394     -0.14629704     0.038576246   -0.32042085    -0.15704652    -0.027289751   -0.033448207    0.11281867     26.308244      5.9291589      5.9291589      0              0              0              0.23787272   
    150000   0.10025919     0.23550585    -5.0751509     -5.6060746     -0.14570545    -0.0040240543  -0.24460973    -0.18848256     0.02372646    -0.035179602    0.045623421    26.572647      5.9291589      5.9291589      0              0              0              0.23550585   
    151000   0.093483914    0.23316252    -5.047805      -5.8885073     -0.20777472    -0.058745253   -0.34869156    -0.21588734     0.0076136755  -0.0046309317   0.07988318     26.839706      5.9291589      5.9291589      0              0              0              0.23316252   
    152000   0.097589424    0.23084252    -5.0753304     -5.8819729     -0.19984556    -0.014236565   -0.33695787    -0.24834223     0.065040887   -0.041799478    0.010924236    27.10945       5.9291589      5.9291589      0              0              0              0.23084252   
    153000   0.10654329     0.2285456     -5.0773324     -5.6703077     -0.15624025    -0.020093248   -0.30128986    -0.14733763     0.062451727    0.005167488    0.049668339    27.381904      5.9291589      5.9291589      0              0              0              0.2285456    
    154000   0.098120569    0.22627153    -5.0589719     -5.6623858     -0.15424701     0.038966608   -0.2926219     -0.20908574     0.0077159825   0.0073026454   0.030028626    27.657097      5.9291589      5.9291589      0              0              0              0.22627153   
    155000   0.093237177    0.22402009    -5.0692716     -5.6817435     -0.15307259     0.032511658   -0.34410577    -0.14762366     0.028194982    0.0003326144   0.10892799     27.935055      5.9291589      5.9291589      0              0              0              0.22402009   
    156000   0.10137996     0.22179105    -5.0573222     -5.6451916     -0.14903936     0.014204057   -0.31329288    -0.14802927    -0.0054683219  -0.0023414567   0.069472609    28.215807      5.9291589      5.9291589      0              0              0              0.22179105   
    157000   0.10351462     0.2195842     -5.0523493     -5.5102999     -0.12225772     0.016396444   -0.23618015    -0.14698946    -0.0207868     -0.017329149    0.038617042    28.499381      5.9291589      5.9291589      0              0              0              0.2195842    
    158000   0.091986796    0.2173993     -5.0532836     -5.9177191     -0.19797679    -0.09284154    -0.30675952    -0.19432932     0.028154739   -0.035965183    0.066543794    28.785804      5.9291589      5.9291589      0              0              0              0.2173993    
    159000   0.10170743     0.21523614    -5.0544009     -5.6077965     -0.13798475     0.0019336967  -0.23925969    -0.17662825    -0.01516443    -0.013322421    0.060101314    29.075107      5.9291589      5.9291589      0              0              0              0.21523614   
    160000   0.10751365     0.2130945     -5.0616372     -5.6580324     -0.1466205      0.0022768244  -0.28273242    -0.1594059      0.0067759736  -0.00055330478  0.079580158    29.367316      5.9291589      5.9291589      0              0              0              0.2130945    
    161000   0.10425329     0.21097418    -5.0747722     -5.5512222     -0.12122347     0.019251623   -0.23400538    -0.14891665    -0.024483393   -0.0020224087   0.040253708    29.662463      5.9291589      5.9291589      0              0              0              0.21097418   
    162000   0.095022485    0.20887495    -5.0696343     -5.7059341     -0.1477545     -0.0064195007  -0.30051578    -0.13632822    -0.019184757   -0.01388391     0.049868516    29.960575      5.9291589      5.9291589      0              0              0              0.20887495   
    163000   0.096900499    0.20679661    -5.0522101     -5.1728676     -0.049872107    0.078678904   -0.14588142    -0.082413803    0.039711939   -0.053719019   -0.0018549336   30.261684      5.9291589      5.9291589      0              0              0              0.20679661   
    164000   0.099052398    0.20473895    -5.0638322     -5.3136997     -0.074023031    0.054709815   -0.22373675    -0.053042152    0.022787734    0.0090318532   0.022158016    30.565819      5.9291589      5.9291589      0              0              0              0.20473895   
    165000   0.094766462    0.20270176    -5.0771178     -5.6503257     -0.13169106     0.03016954    -0.29001227    -0.13523046    -0.0065198772   0.017452495    0.016867946    30.873011      5.9291589      5.9291589      0              0              0              0.20270176   
    166000   0.1058859      0.20068484    -5.0588434     -5.4856839     -0.10670507     0.019233211   -0.20954457    -0.12980384     0.035892139    0.012773955    0.017858693    31.18329       5.9291589      5.9291589      0              0              0              0.20068484   
    167000   0.10263566     0.198688      -5.0560265     -5.5787863     -0.12209261     0.034378423   -0.25411994    -0.1465363     -0.041469458    0.0062547951   0.078858918    31.496687      5.9291589      5.9291589      0              0              0              0.198688     
    168000   0.093035913    0.19671102    -5.0654233     -5.6633559     -0.1317586      0.0054134055  -0.25202298    -0.14866623     0.024656378    0.035371025    0.094675329    31.813234      5.9291589      5.9291589      0              0              0              0.19671102   
    169000   0.10543986     0.19475371    -5.059196      -5.8398872     -0.16608246    -0.00012456176 -0.29743657    -0.20068624    -0.017324127   -0.0028241587   0.049516143    32.132962      5.9291589      5.9291589      0              0              0              0.19475371   
    170000   0.10293122     0.19281588    -5.0694055     -5.6764592     -0.13333719     0.0025466318  -0.20940015    -0.19315805    -0.018266406    0.045314465    0.048001503    32.455904      5.9291589      5.9291589      0              0              0              0.19281588   
    171000   0.10358962     0.19089733    -5.0543337     -5.7034383     -0.13947862    -0.017836381   -0.27478377    -0.12581571    -0.0063562287  -0.025095662    0.088009595    32.782091      5.9291589      5.9291589      0              0              0              0.19089733   
    172000   0.092007329    0.18899787    -5.0846542     -5.7389271     -0.13600868    -0.01474756    -0.20262269    -0.19065579     0.014951802    0.0040848911   0.050783401    33.111557      5.9291589      5.9291589      0              0              0              0.18899787   
    173000   0.10129504     0.18711731    -5.0525234     -5.517333      -0.10478441     0.018847076   -0.23928258    -0.093917729   -0.030618006    0.0001757371   0.089255661    33.444333      5.9291589      5.9291589      0              0              0              0.18711731   
    174000   0.09452208     0.18525546    -5.0652469     -5.6384035     -0.12028651     0.030692441   -0.23332364    -0.15822831    -0.025659807   -0.0077793457   0.045506637    33.780454      5.9291589      5.9291589      0              0              0              0.18525546   
    175000   0.099948172    0.18341214    -5.0564139     -5.5136099     -0.1011049     -0.017227843   -0.2059253     -0.080161544   -0.0092402265   0.00099047555  0.021118462    34.119954      5.9291589      5.9291589      0              0              0              0.18341214   
    176000   0.093956304    0.18158716    -5.0398833     -5.8051858     -0.14948458    -0.0081383572  -0.29543004    -0.14488535     0.027894101    0.031719905    0.054901281    34.462865      5.9291589      5.9291589      0              0              0              0.18158716   
    177000   0.088912339    0.17978033    -5.0503869     -5.6689984     -0.12279212     0.020224077   -0.22620383    -0.16239659    -0.029131877   -0.01223422     0.043422873    34.809222      5.9291589      5.9291589      0              0              0              0.17978033   
    178000   0.099931157    0.17799149    -5.0583343     -5.8512438     -0.15243464    -0.041780732   -0.26463281    -0.15089037    -0.0091815998   0.024177754    0.064995634    35.159061      5.9291589      5.9291589      0              0              0              0.17799149   
    179000   0.099045217    0.17622044    -5.0665974     -5.5553154     -0.10197444     0.03272368    -0.2159742     -0.12267281    -0.020390353   -0.020733722    0.051407333    35.512415      5.9291589      5.9291589      0              0              0              0.17622044   
    180000   0.10183763     0.17446702    -5.0499402     -5.8709656     -0.15432687    -0.0751537     -0.23213583    -0.15569108    -0.021328716   -0.0054326988   0.053805676    35.869321      5.9291589      5.9291589      0              0              0              0.17446702   
    181000   0.10421848     0.17273105    -5.0636419     -5.6434192     -0.11546652     0.051017075   -0.26059661    -0.13682004     0.024269536   -0.01580595     0.012568127    36.229814      5.9291589      5.9291589      0              0              0              0.17273105   
    182000   0.092117575    0.17101234    -5.0560825     -5.5098804     -0.091924315    0.024057642   -0.2029322     -0.096898387    0.011358467   -0.028804773    0.055786589    36.593929      5.9291589      5.9291589      0              0              0              0.17101234   
    183000   0.11579332     0.16931074    -5.0452186     -5.6111845     -0.11371332    -0.0026753774  -0.19413624    -0.14432833    -0.011880637   -0.051106428    0.011285206    36.961704      5.9291589      5.9291589      0              0              0              0.16931074   
    184000   0.097417551    0.16762607    -5.0690608     -5.5144585     -0.090029431    0.026395892   -0.17016355    -0.12632064    -0.020109613    0.035939538    0.0045246197   37.333176      5.9291589      5.9291589      0              0              0              0.16762607   
    185000   0.10256105     0.16595817    -5.0668766     -5.6739449     -0.11468322    -0.017780646   -0.21386532    -0.1124037      0.0026448949   0.0063732445  -0.01387304     37.70838       5.9291589      5.9291589      0              0              0              0.16595817   
    186000   0.11061773     0.16430685    -5.0621972     -5.483835      -0.087640491    0.010900596   -0.17394096    -0.099881113    0.003245027   -0.033633117    0.041701481    38.087356      5.9291589      5.9291589      0              0              0              0.16430685   
    187000   0.091752986    0.16267197    -5.0563556     -5.7185546     -0.11817976    -0.0061577084  -0.24563486    -0.10274671    -0.021763227    0.0084924226   0.061044462    38.47014       5.9291589      5.9291589      0              0              0              0.16267197   
    188000   0.10374797     0.16105336    -5.0712243     -5.4638239     -0.080152376    0.068861569   -0.20832723    -0.10099147    -0.039039377   -0.0034742178   0.0015895505   38.856772      5.9291589      5.9291589      0              0              0              0.16105336   
    189000   0.093548112    0.15945085    -5.0579428     -5.4651869     -0.079270944    0.052732018   -0.1839836     -0.10656125     0.016357001    0.029928544    0.040320603    39.247289      5.9291589      5.9291589      0              0              0              0.15945085   
    190000   0.10993107     0.15786429    -5.0739427     -5.55998       -0.093299151   -0.00043042779 -0.17066297    -0.10880406    -0.008380184    0.005678475    0.018521104    39.64173       5.9291589      5.9291589      0              0              0              0.15786429   
    191000   0.10401        0.15629351    -5.0536272     -5.8177312     -0.13062428    -0.02081177    -0.22725094    -0.14381015    -0.016407743    0.01133834     0.04200742     40.040136      5.9291589      5.9291589      0              0              0              0.15629351   
    192000   0.10164619     0.15473837    -5.0711314     -5.5899843     -0.094328485    0.021377328   -0.16802253    -0.13634026    -0.0039460737  -0.0086603586   0.036984604    40.442547      5.9291589      5.9291589      0              0              0              0.15473837   
    193000   0.10612215     0.1531987     -5.0646801     -5.534856      -0.087540969    0.017401948   -0.17728242    -0.10274244    -0.00089457287  0.007525078    0.042883284    40.849001      5.9291589      5.9291589      0              0              0              0.1531987    
    194000   0.092796982    0.15167434    -5.0731103     -5.808948      -0.12055866    -0.025701411   -0.20697512    -0.12899945     0.0062003051  -0.0092171841   0.0051775721   41.25954       5.9291589      5.9291589      0              0              0              0.15167434   
    195000   0.10322974     0.15016516    -5.0657413     -5.7012902     -0.1077939     -0.012490453   -0.19327327    -0.11761799    -0.00049725437  0.017405107    0.021486193    41.674205      5.9291589      5.9291589      0              0              0              0.15016516   
    196000   0.098088948    0.14867099    -5.0541389     -5.6728719     -0.10341159    -0.017092402   -0.15925403    -0.13388833    -0.007258775    0.011895774    0.034022342    42.093038      5.9291589      5.9291589      0              0              0              0.14867099   
    197000   0.092501244    0.14719169    -5.0700458     -5.439921      -0.067966878    0.06057475    -0.17112864    -0.093346742    0.00025499928  0.0031914701   0.0087245053   42.51608       5.9291589      5.9291589      0              0              0              0.14719169   
    198000   0.10633056     0.14572711    -5.0726185     -5.5103238     -0.079011078    0.017034508   -0.14627149    -0.10779625    -0.027789099   -0.0083976837   0.018466028    42.943374      5.9291589      5.9291589      0              0              0              0.14572711   
    199000   0.10659848     0.1442771     -5.0406868     -5.8184152     -0.12287511    -0.010675405   -0.17893384    -0.17901608     0.045208566   -0.004213299    0.011919514    43.374962      5.9291589      5.9291589      0              0              0              0.1442771    
    200000   0.10481615     0.14284152    -5.0731772     -5.9703731     -0.13682061    -0.036699903   -0.2045666     -0.16919533     0.0068639323   0.026920561    0.02856733     43.810888      5.9291589      5.9291589      0              0              0              0.14284152   
Loop time of 45.9317 on 1 procs for 200000 steps with 200 atoms

Performance: 752421.129 tau/day, 4354.289 timesteps/s
53.4% CPU use with 1 MPI tasks x 1 OpenMP threads

MPI task timing breakdown:
Section |  min time  |  avg time  |  max time  |%varavg| %total
---------------------------------------------------------------
Pair    | 36.036     | 36.036     | 36.036     |   0.0 | 78.46
Bond    | 0.86532    | 0.86532    | 0.86532    |   0.0 |  1.88
Neigh   | 0.23778    | 0.23778    | 0.23778    |   0.0 |  0.52
Comm    | 1.1306     | 1.1306     | 1.1306     |   0.0 |  2.46
Output  | 1.2032     | 1.2032     | 1.2032     |   0.0 |  2.62
Modify  | 6.014      | 6.014      | 6.014      |   0.0 | 13.09
Other   |            | 0.4448     |            |       |  0.97

Nlocal:            200 ave         200 max         200 min
Histogram: 1 0 0 0 0 0 0 0 0 0
Nghost:            752 ave         752 max         752 min
Histogram: 1 0 0 0 0 0 0 0 0 0
Neighs:          12271 ave       12271 max       12271 min
Histogram: 1 0 0 0 0 0 0 0 0 0

Total # of neighbors = 12271
Ave neighs/atom = 61.355
Ave special neighs/atom = 8.14
Neighbor list builds = 295
Dangerous builds = 0
System init for write_data ...
Generated 0 of 1 mixed pair_coeff terms from geometric mixing rule
WARNING: Not all mixed pair coeffs generated from mixing. Use write_data with 'pair ij' option to store all pair coeffs. (src/write_data.cpp:309)
Total wall time: 0:00:45
0.76875
