LAMMPS (23 Jun 2022)
OMP_NUM_THREADS environment is not set. Defaulting to 1 thread. (src/comm.cpp:98)
  using 1 OpenMP thread(s) per MPI task
Reading data file ...
  orthogonal box = (96.838678 96.838678 96.838678) to (103.16132 103.16132 103.16132)
  1 by 1 by 1 MPI processor grid
  reading atoms ...
  200 atoms
  scanning bonds ...
  4 = max bonds/atom
  reading bonds ...
  203 bonds
Finding 1-2 1-3 1-4 neighbors ...
  special bond factors lj:    0        0        0       
  special bond factors coul:  0        0        0       
     4 = max # of 1-2 neighbors
     4 = max # of 1-3 neighbors
    10 = max # of 1-4 neighbors
    12 = max # of special neighbors
  special bonds CPU = 0.000 seconds
  read_data CPU = 0.016 seconds
Finding 1-2 1-3 1-4 neighbors ...
  special bond factors lj:    0        1        1       
  special bond factors coul:  0        0        0       
     4 = max # of 1-2 neighbors
     4 = max # of 1-3 neighbors
    10 = max # of 1-4 neighbors
    12 = max # of special neighbors
  special bonds CPU = 0.000 seconds
Generated 0 of 1 mixed pair_coeff terms from geometric mixing rule
Neighbor list info ...
  update every 1 steps, delay 0 steps, check yes
  max neighbors/atom: 2000, page size: 100000
  master list distance cutoff = 5.5
  ghost atom cutoff = 5.5
  binsize = 2.75, bins = 3 3 3
  1 neighbor lists, perpetual/occasional/extra = 1 0 0
  (1) pair lj/cut, perpetual
      attributes: half, newton on
      pair build: half/bin/newton
      stencil: half/bin/3d
      bin: standard
Setting up Verlet run ...
  Unit style    : lj
  Current step  : 0
  Time step     : 0.002
WARNING: Inconsistent image flags (src/domain.cpp:819)
Per MPI rank memory allocation (min/avg/max) = 8.731 | 8.731 | 8.731 Mbytes
   Step          Temp         Density         PotEng        Enthalpy        Press           Pxx            Pyy            Pzz            Pxy            Pxz            Pyz             Lx             Ly             Lz             Xy             Yz             Xz          Density    
         0   1.5            0.87041501    -4.124614       0.6028193      1.9692612      1.5995932      2.1122114      2.1959789      0.21856875    -0.1439767      0.07360957     6.3226446      6.3226446      6.3226446      0              0              0              0.87041501   
      1000   1.5124739      0.79478697    -2.9582782      0.29754204     0.72141585     0.37557941     0.84586082     0.94280733     0.28298398    -0.030512506    0.22224846     6.517144       6.517144       6.517144       0              0              0              0.79478697   
      2000   1.4475551      0.75891364    -2.8319897      0.47467102     0.79077747     1.1315318      0.32363045     0.91717011    -0.62061575    -0.042690014    0.77627673     6.6182542      6.6182542      6.6182542      0              0              0              0.75891364   
      3000   1.6252708      0.79874031    -2.960582       2.3328824      2.0823506      1.179651       3.0474661      2.0199348     -0.10884686    -0.17837755    -0.15059475     6.506374       6.506374       6.506374       0              0              0              0.79874031   
      4000   1.4398592      0.7905271     -2.9352922      1.0561632      1.3241081      0.99278642     1.3265507      1.6529873      0.26049419    -0.12191383    -0.2419606      6.5288292      6.5288292      6.5288292      0              0              0              0.7905271    
      5000   1.333763       0.75976897    -2.8294948     -0.44352389     0.27305384     0.31296382     0.14545318     0.3607445     -0.33504787     0.054345551    0.095826098    6.6157697      6.6157697      6.6157697      0              0              0              0.75976897   
      6000   1.4585612      0.7879204     -3.0666656      0.078529567    0.69357956     1.1157924     -0.39028264     1.3552289      0.35939387    -0.18073385    -0.68151805     6.5360211      6.5360211      6.5360211      0              0              0              0.7879204    
      7000   1.2711637      0.83927549    -3.1992427      2.1670539      2.6468343      3.7483795      1.8187968      2.3733266      0.61926843     0.039992072    0.6244859      6.399893       6.399893       6.399893       0              0              0              0.83927549   
      8000   1.3514425      0.79659917    -2.9082698      0.51818308     1.0206789      0.6191671      1.6062577      0.83661178    -0.61576201    -0.32494724    -0.43350578     6.5121982      6.5121982      6.5121982      0              0              0              0.79659917   
      9000   1.3120501      0.79862096    -3.1406447      0.081818967    0.91785432     1.0924648      0.45511589     1.2059823     -0.26007823     0.080936459   -0.31486614     6.5066981      6.5066981      6.5066981      0              0              0              0.79862096   
     10000   1.3261858      0.77996887    -2.9362855     -0.49377045     0.32842556     0.94554663     0.25896098    -0.21923092     0.069382659   -0.58093042    -0.19154819     6.5581569      6.5581569      6.5581569      0              0              0              0.77996887   
     11000   1.4438052      0.77755986    -2.7814221      0.90963677     1.0858833      0.83362009     0.96344037     1.4605893     -0.43537953    -0.11407104    -0.62958554     6.5649227      6.5649227      6.5649227      0              0              0              0.77755986   
     12000   1.3318355      0.79741839    -3.0322041      1.0537543      1.5210349      0.78342702     1.3575984      2.4220793     -0.18919211     0.10618632     0.069415752    6.5099673      6.5099673      6.5099673      0              0              0              0.79741839   
     13000   1.3330242      0.77891447    -3.0850257     -0.59725938     0.3527971      0.38234711     0.72379991    -0.047755722    0.30262119    -0.17913433     0.16623159     6.5611148      6.5611148      6.5611148      0              0              0              0.77891447   
     14000   1.4841875      0.80084941    -3.1119166      0.33058071     0.89356404     0.57444027     1.6936228      0.41262905    -0.2013061     -0.95099472     0.29200269     6.5006573      6.5006573      6.5006573      0              0              0              0.80084941   
     15000   1.4261052      0.82502427    -3.1735843      0.5135332      1.169026       1.4051084      0.92318513     1.1787845     -0.46666212     0.51606402    -0.11158251     6.4365328      6.4365328      6.4365328      0              0              0              0.82502427   
     16000   1.4056779      0.79595934    -3.0753752      0.62141506     1.1569023      0.61464079     1.621041       1.2350251      0.091686375    0.34858633    -0.16432865     6.5139427      6.5139427      6.5139427      0              0              0              0.79595934   
     17000   1.265166       0.81306957    -3.1074781      1.0455529      1.6740148      1.1142651      2.5112203      1.3965589     -0.055284053    0.29295956     0.94844574     6.4679252      6.4679252      6.4679252      0              0              0              0.81306957   
     18000   1.2971718      0.77679484    -3.1607585     -0.15668772     0.75422676     1.1368866      0.18647704     0.93931668    -0.042994721   -0.10733085     0.066359782    6.5670771      6.5670771      6.5670771      0              0              0              0.77679484   
     19000   1.216336       0.80940849    -3.1780748     -0.06014411     0.95844947     1.3069063      0.64216075     0.9262814     -0.14036178    -0.63895938     0.14395367     6.4776624      6.4776624      6.4776624      0              0              0              0.80940849   
     20000   1.3358857      0.84026117    -3.4557733      0.25904508     1.3146337      0.98332316     1.8292565      1.1313214      0.33141952    -0.073011954   -0.62594592     6.3973895      6.3973895      6.3973895      0              0              0              0.84026117   
     21000   1.2417393      0.82874567    -3.094681       0.16991106     1.0632777      0.52937872     1.3222749      1.3381796     -0.097284668    0.025306598    0.8045843      6.4268841      6.4268841      6.4268841      0              0              0              0.82874567   
     22000   1.4267487      0.80846249    -3.1272707     -0.71973689     0.20440233    -0.4415463      0.41443444     0.64031886     0.55648997    -0.15388298     0.16509917     6.480188       6.480188       6.480188       0              0              0              0.80846249   
     23000   1.2282764      0.83805595    -3.3339605     -0.016858095    1.1305374      0.45379111     1.3579433      1.5798777      0.35404552     0.14245356    -0.12363538     6.4029959      6.4029959      6.4029959      0              0              0              0.83805595   
     24000   1.2895758      0.83957102    -3.4895604      0.41581659     1.5117507      1.4208023      1.1774437      1.9370061     -0.34649076     0.22949068    -0.1230868      6.399142       6.399142       6.399142       0              0              0              0.83957102   
     25000   1.2308723      0.82166155    -3.4925097     -1.2686628      0.28890367     0.41778381     0.11211016     0.33681705    -0.030348948   -0.46450814     0.26624601     6.4453015      6.4453015      6.4453015      0              0              0              0.82166155   
     26000   1.2025498      0.82847551    -3.3662165     -0.89919822     0.50628344    -0.00017503523  1.3919614      0.12706398     0.013000292    0.12226887    -0.15564097     6.4275826      6.4275826      6.4275826      0              0              0              0.82847551   
     27000   1.3277291      0.84623266    -3.3923999      0.86428366     1.7501998      2.6346172      1.6065235      1.0094588     -0.22122717     0.52326652    -0.35980581     6.3823061      6.3823061      6.3823061      0              0              0              0.84623266   
     28000   1.1835111      0.80966375    -3.3238551     -0.56999391     0.72683574     0.69177242     1.7161076     -0.22737283    -0.18661925    -0.06080387     0.13337619     6.4769816      6.4769816      6.4769816      0              0              0              0.80966375   
     29000   1.1731121      0.85700672    -3.4646479     -0.61162663     0.85868299     0.39064162     1.0253449      1.1600624      0.2823774      0.29087523     0.19705898     6.3554477      6.3554477      6.3554477      0              0              0              0.85700672   
     30000   1.068021       0.83830068    -3.5695604     -0.78373543     0.90826336     1.0962633      0.34778643     1.2807404      0.2136148      0.39940104     0.25936805     6.4023727      6.4023727      6.4023727      0              0              0              0.83830068   
     31000   1.1454135      0.84965271    -3.5609161     -0.23842644     1.2458689      1.1524741      1.7304726      0.85465996     0.10992766    -0.38472908     0.2708414      6.3737312      6.3737312      6.3737312      0              0              0              0.84965271   
     32000   1.2472277      0.82763047    -3.4421813     -0.45496766     0.84698669     1.4032018      0.64328116     0.49447713    -0.54871135     0.068554003   -0.2572898      6.4297695      6.4297695      6.4297695      0              0              0              0.82763047   
     33000   1.2773293      0.84568683    -3.3719114     -0.20689908     0.96761822     0.4377645      1.6837669      0.78132323     0.42752767    -0.20889984     0.011741184    6.383679       6.383679       6.383679       0              0              0              0.84568683   
     34000   1.1664336      0.84141156    -3.5757198     -0.87929273     0.73089967     0.30056945     1.0144726      0.87765694     0.12243705     0.17762632    -0.059565385    6.3944727      6.3944727      6.3944727      0              0              0              0.84141156   
     35000   1.1272913      0.82708001    -3.5706759     -1.5146934      0.2808315      0.62325278     0.56116891    -0.34192718     0.010749954    0.083043846   -0.36075474     6.4311956      6.4311956      6.4311956      0              0              0              0.82708001   
     36000   1.19304        0.87162518    -3.5947326      0.52686223     1.8549631      2.2521081      2.0673665      1.2454147     -0.1291903      0.9051247     -0.0078824194   6.3197171      6.3197171      6.3197171      0              0              0              0.87162518   
     37000   1.02492        0.84336937    -3.5069078     -0.027144054    1.495118       1.2236763      0.83164648     2.4300312      0.098541058   -0.17919688    -0.0508069      6.3895208      6.3895208      6.3895208      0              0              0              0.84336937   
     38000   1.0318897      0.83319255    -3.4388225     -0.15876024     1.3179341      2.116237       1.0332965      0.80426866     0.40384805    -0.39706733     0.22110874     6.41543        6.41543        6.41543        0              0              0              0.83319255   
     39000   1.0507647      0.87142144    -3.7165981     -0.99315348     0.91513376     1.4357415      0.2872132      1.0224466      0.43540894    -0.22047848    -0.021387466    6.3202096      6.3202096      6.3202096      0              0              0              0.87142144   
     40000   1.2277367      0.8755098     -3.8767994     -0.98673766     0.8418144      0.81968026     1.1018321      0.60393086    -0.12513184     0.32431098    -0.62426618     6.3103564      6.3103564      6.3103564      0              0              0              0.8755098    
     41000   1.1565909      0.84903377    -3.6237985     -1.0082488      0.68643442     0.4644674     -0.0046893917   1.5995253     -0.7612345      0.037546006    0.48505226     6.3752796      6.3752796      6.3752796      0              0              0              0.84903377   
     42000   1.0130108      0.8800064     -3.8072191     -0.96499665     1.0642508      1.0511816      1.0263957      1.115175       0.17042436    -0.22230575    -0.098432337    6.29959        6.29959        6.29959        0              0              0              0.8800064    
     43000   1.1750606      0.86942921    -3.8634332     -0.75071538     1.0740928      1.0949797      0.63950987     1.4877889     -0.27960624    -0.12875297     0.11227566     6.3250333      6.3250333      6.3250333      0              0              0              0.86942921   
     44000   1.02021        0.8864488     -3.8057051     -1.7322694      0.44384669     0.87399614    -0.61428439     1.0718283      0.10942228    -0.78777706     0.72782293     6.2842918      6.2842918      6.2842918      0              0              0              0.8864488    
     45000   0.98922566     0.84682643    -3.729761      -1.9434515      0.23856656     0.080935601    0.72163798    -0.086873912   -0.31042152    -0.075280746    0.022718707    6.3808141      6.3808141      6.3808141      0              0              0              0.84682643   
     46000   1.1303097      0.88651275    -3.8328484     -1.0522318      0.8813785      0.75083638     1.0494819      0.8438172     -0.31609207    -0.57683922     0.44890872     6.2841407      6.2841407      6.2841407      0              0              0              0.88651275   
     47000   1.0430559      0.87252167    -3.9173016     -1.4717876      0.70496028     0.81337657     0.913317       0.38818728     0.012840469    0.31514502    -0.12952578     6.3175519      6.3175519      6.3175519      0              0              0              0.87252167   
     48000   1.0162273      0.87215353    -3.9352995     -1.5797858      0.66505228     0.04885768     1.0414798      0.90481935     0.097468603   -0.032772654   -0.066486951    6.3184407      6.3184407      6.3184407      0              0              0              0.87215353   
     49000   1.0318259      0.92032092    -4.0210223     -0.10342071     1.989233       1.4001221      2.477931       2.089646      -0.45937234    -0.14225425    -0.79576434     6.206229       6.206229       6.206229       0              0              0              0.92032092   
     50000   0.970226       0.88384885    -3.9895139     -0.737653       1.4493503      1.5009176      1.1043644      1.7427688     -0.24746233    -0.79473442    -0.17880063     6.2904478      6.2904478      6.2904478      0              0              0              0.88384885   
     51000   0.99385982     0.8755389     -4.0251164     -2.3538468      0.1495849      0.7271254     -0.22162155    -0.056749138    0.43693331    -0.47567369    -0.38759577     6.3102865      6.3102865      6.3102865      0              0              0              0.8755389    
     52000   0.96095961     0.90134844    -3.866639      -0.11713932     1.8971479      1.4515209      1.5229385      2.7169844      0.30441942     0.36925772     0.67223436     6.2494719      6.2494719      6.2494719      0              0              0              0.90134844   
     53000   1.0154539      0.88431399    -3.9889934     -0.97193159     1.207086       0.32925786     1.8739638      1.4180365      0.38459395    -0.029238773    0.22517193     6.2893447      6.2893447      6.2893447      0              0              0              0.88431399   
     54000   0.88265073     0.88927343    -4.0655575     -2.3989492      0.28234607    -0.00085242087  0.71914072     0.12874991     0.36485593     0.45467559     0.78297402     6.2776311      6.2776311      6.2776311      0              0              0              0.88927343   
     55000   0.94184588     0.89380246    -4.1735135     -1.6523901      0.90633061     1.4217308      0.56587994     0.73138108    -0.30932191    -0.21459809    -0.35717293     6.2670099      6.2670099      6.2670099      0              0              0              0.89380246   
     56000   0.93402665     0.90926127    -4.0181163     -0.040315394    2.1357441      2.1934643      1.7083549      2.5054131     -0.77100007    -0.034557822   -0.27720644     6.2312905      6.2312905      6.2312905      0              0              0              0.90926127   
     57000   0.92544293     0.90766064    -4.2107233     -2.2457522      0.48167695     0.56514775     0.24203236     0.63785075     0.12512365    -0.11096178     0.036656188    6.2349512      6.2349512      6.2349512      0              0              0              0.90766064   
     58000   0.93086001     0.89440355    -4.103943      -2.3358164      0.30801471     1.0660677     -0.14710505     0.0050814718  -0.17361878     0.21550397    -0.39366911     6.2656056      6.2656056      6.2656056      0              0              0              0.89440355   
     59000   1.0353399      0.90427968    -4.1580888     -1.2052527      1.157142       1.3050683      1.4705421      0.69581575    -0.98602379     0.68397383    -0.1057558      6.242712       6.242712       6.242712       0              0              0              0.90427968   
     60000   0.88728368     0.91491655    -4.2110063     -0.89660296     1.6552774      1.1804664      2.1052851      1.6800807      0.26453304    -0.12690372     0.11982042     6.218425       6.218425       6.218425       0              0              0              0.91491655   
     61000   0.83404038     0.88308864    -4.0327156     -2.1422062      0.5183764      0.55169336     0.87483164     0.12860421    -0.06238525    -0.088893589   -0.34305947     6.2922523      6.2922523      6.2922523      0              0              0              0.88308864   
     62000   0.90376705     0.92894915    -4.3083703     -1.6527038      1.1035867      1.3434431      0.75641326     1.2109037      0.092283043    0.39345923    -0.1289554      6.1869544      6.1869544      6.1869544      0              0              0              0.92894915   
     63000   0.99313381     0.90699078    -4.2699235     -1.4611566      1.0937605      1.3685739      1.5054291      0.4072785      0.29580116     0.69306134    -0.17970479     6.2364858      6.2364858      6.2364858      0              0              0              0.90699078   
     64000   0.91462377     0.91425388    -4.2981919     -1.9151655      0.84605921     1.2670228      0.759627       0.51152779    -0.28265945     0.40927666     0.50387097     6.219927       6.219927       6.219927       0              0              0              0.91425388   
     65000   0.83207736     0.91298267    -4.3001763     -2.4617802      0.49510279     0.41882658     0.6784784      0.3880034     -0.43987948    -0.037095154    0.55647423     6.2228125      6.2228125      6.2228125      0              0              0              0.91298267   
     66000   0.84972046     0.93083569    -4.4649463     -2.2358877      0.81308574     1.9117541      0.27968632     0.24781679    -0.18557568    -0.051841356    0.12639459     6.1827718      6.1827718      6.1827718      0              0              0              0.93083569   
     67000   0.80234112     0.92317244    -4.2631351     -1.8625455      1.0096952      1.1835463      1.0528226      0.7927165     -0.034022741   -0.1364475      0.28897875     6.1998324      6.1998324      6.1998324      0              0              0              0.92317244   
     68000   0.84352353     0.92429566    -4.4674576     -2.0940467      0.93643919     1.2502842      0.92569253     0.63334081     0.74783585     0.50824625     0.12936239     6.19732        6.19732        6.19732        0              0              0              0.92429566   
     69000   0.77290316     0.91644195    -4.3970016     -2.5201575      0.60259069     0.43107667     0.45654719     0.9201482      0.013781231   -0.36428964     0.12900997     6.2149729      6.2149729      6.2149729      0              0              0              0.91644195   
     70000   0.75504643     0.91744685    -4.2297723     -1.7398249      1.1368339      1.3260097      1.582079       0.50241313    -1.0664963      0.10522403     0.15752877     6.2127029      6.2127029      6.2127029      0              0              0              0.91744685   
     71000   0.76825904     0.9485071     -4.387619      -0.24710893     2.5815633      2.7827839      2.8896833      2.0722229     -0.70777853     0.9008884      0.16826771     6.1441343      6.1441343      6.1441343      0              0              0              0.9485071    
     72000   0.71011612     0.9275292     -4.3092834     -1.6194058      1.3744543      1.526538       1.5452401      1.0515849      0.25121579     0.58148567     0.20628796     6.19011        6.19011        6.19011        0              0              0              0.9275292    
     73000   0.73783147     0.92929217    -4.4961539     -2.0751684      1.1149581      0.62924972     1.4706947      1.2449297     -0.42093673    -0.023441806   -0.088106116    6.186193       6.186193       6.186193       0              0              0              0.92929217   
     74000   0.77260676     0.92514417    -4.4245991     -2.8084278      0.38944847     0.18409157     0.13185538     0.85239846    -0.10189647     0.39769684    -0.22896247     6.1954248      6.1954248      6.1954248      0              0              0              0.92514417   
     75000   0.80709955     0.95788271    -4.6616527     -2.0794429      1.1996294      1.5601454      0.99950855     1.0392343      0.16855071     0.32688242     0.69743437     6.1240226      6.1240226      6.1240226      0              0              0              0.95788271   
     76000   0.77185261     0.94303076    -4.509143      -1.6084246      1.4991861      1.6012494      1.5808205      1.3154882     -0.64443231    -0.59825486    -0.093551067    6.1560047      6.1560047      6.1560047      0              0              0              0.94303076   
     77000   0.72004508     0.93341032    -4.5953433     -3.0166773      0.42767056     0.44620662     0.29019816     0.54660691    -0.57164503    -0.14160633     0.19226221     6.1770819      6.1770819      6.1770819      0              0              0              0.93341032   
     78000   0.74570087     0.93171751    -4.6107402     -2.8187815      0.57512388     0.44809932     0.59917913     0.67809318    -0.059763711   -0.46688944    -0.28799937     6.1808206      6.1808206      6.1808206      0              0              0              0.93171751   
     79000   0.67801302     0.95627424    -4.6576926     -2.9020703      0.64651782     1.1070423      0.070510738    0.76200041    -0.83448175    -0.61358049     0.075806768    6.1274542      6.1274542      6.1274542      0              0              0              0.95627424   
     80000   0.71554608     0.94449533    -4.5885445     -2.4277648      0.93833649     0.97909037     0.50512365     1.3307955      0.29142901     0.46811498     0.43716856     6.1528211      6.1528211      6.1528211      0              0              0              0.94449533   
     81000   0.66089421     0.97322922    -4.8308588     -2.8331815      0.89474514     0.63226103     1.1552379      0.89673649    -0.35008784    -0.31778126    -0.15391549     6.0916627      6.0916627      6.0916627      0              0              0              0.97322922   
     82000   0.66925978     0.94141182    -4.6832316     -3.6133763      0.060751079    0.36457893     0.056643684   -0.23896938    -0.33990449    -0.27058843     0.22850609     6.1595315      6.1595315      6.1595315      0              0              0              0.94141182   
     83000   0.71541315     0.96177263    -4.7836565     -2.7277305      0.86399693     0.73585413     1.5341875      0.32194922     0.22771804    -0.59660937     0.04529862     6.1157551      6.1157551      6.1157551      0              0              0              0.96177263   
     84000   0.67844418     0.98439307    -4.9309617     -2.5970786      1.1824397      0.92839376     1.5615645      1.057361      -0.021365997    0.083866726    0.33193484     6.0685469      6.0685469      6.0685469      0              0              0              0.98439307   
     85000   0.62590294     0.95849192    -4.7921021     -3.7995841      0.050850492   -0.16824618     0.41947351    -0.098675847    0.57911429     0.20583377     0.60833283     6.1227248      6.1227248      6.1227248      0              0              0              0.95849192   
     86000   0.62158236     0.98624098    -5.0205406     -2.8898717      1.0785507      1.0629005      1.3075842      0.86516731    -0.23638147     0.25829963    -0.27628031     6.0647543      6.0647543      6.0647543      0              0              0              0.98624098   
     87000   0.6877217      0.96683121    -4.9153028     -3.3605126      0.46440026     0.25921175     0.97468707     0.15930195     0.3868285      0.077955489    0.49728088     6.1050704      6.1050704      6.1050704      0              0              0              0.96683121   
     88000   0.60982607     0.9988451     -4.9571535     -2.3409855      1.5491203      2.1368621      1.1931542      1.3173445      0.76870115     0.23075079     0.2559462      6.0391365      6.0391365      6.0391365      0              0              0              0.9988451    
     89000   0.59951539     0.96720908    -4.9717771     -3.8668387      0.18479119    -0.27799024     0.38493428     0.44742954     0.17890744     0.14846644     0.77357569     6.1042752      6.1042752      6.1042752      0              0              0              0.96720908   
     90000   0.64038302     0.9764054     -4.9880302     -2.6977614      1.1845547      0.77314937     1.2468881      1.5336268     -0.27745154     0.44392792     0.64577814     6.0850503      6.0850503      6.0850503      0              0              0              0.9764054    
     91000   0.64006497     0.99493289    -4.9058247     -1.6698729      2.0628168      1.8143661      2.3230644      2.0510199      0.088765366    0.20815947     0.42331641     6.0470417      6.0470417      6.0470417      0              0              0              0.99493289   
     92000   0.56433002     0.98172486    -4.9367678     -3.0123351      0.96581215     0.53313665     1.2810367      1.0832631     -0.11648386    -0.26015477     0.3210496      6.0740398      6.0740398      6.0740398      0              0              0              0.98172486   
     93000   0.54988495     0.99464823    -5.1025304     -3.094787       1.0733521      0.99392557     0.73909098     1.4870397      0.48421668     0.46551716    -0.4182909      6.0476185      6.0476185      6.0476185      0              0              0              0.99464823   
     94000   0.47579597     0.9762466     -5.0481148     -4.253465       0.075015127   -0.12677553    -0.17523575     0.52705666     0.21145355     0.21664159     0.046281621    6.0853802      6.0853802      6.0853802      0              0              0              0.9762466    
     95000   0.54441366     1.008213      -5.1400785     -2.7643915      1.4327162      0.93885743     1.5789576      1.7803336      0.19226439    -0.087544269    0.68273858     6.0203738      6.0203738      6.0203738      0              0              0              1.008213     
     96000   0.57529906     0.9963589     -5.0783174     -2.6541387      1.4180405      1.2768975      1.4494285      1.5277955      0.2083608      0.33991362     0.45401589     6.0441555      6.0441555      6.0441555      0              0              0              0.9963589    
     97000   0.53673841     0.98566612    -5.1352948     -4.2267664      0.096278348   -0.11742668     0.55342583    -0.1471641      0.029535515   -0.29248272    -0.2063586      6.0659331      6.0659331      6.0659331      0              0              0              0.98566612   
     98000   0.54160245     0.99145483    -5.1610098     -3.7994051      0.49866845     1.0469798      0.62253726    -0.17351166     0.10768109     0.07353953     0.25859343     6.0541045      6.0541045      6.0541045      0              0              0              0.99145483   
     99000   0.49145153     1.0121555     -5.2382381     -3.4038665      1.0129653      0.9552284      0.60568251     1.477985       0.040439293    0.1644402      0.20496005     6.012547       6.012547       6.012547       0              0              0              1.0121555    
    100000   0.51940624     0.98816082    -5.1678624     -4.3167908      0.068145165    0.31444557     0.27863386    -0.38864393    -0.33546984     0.093271273    0.0013308328   6.0608242      6.0608242      6.0608242      0              0              0              0.98816082   
    101000   0.49779565     1.0292584     -5.3297433     -2.8820215      1.5951275      1.4717228      1.2655703      2.0480896      0.28212626    -0.48730197    -0.42157886     5.9790579      5.9790579      5.9790579      0              0              0              1.0292584    
    102000   0.50909532     0.99082588    -5.2194856     -4.129185       0.29767635     0.47280282     0.24363211     0.17659413     0.68391428     0.1695904      0.074674462    6.0553853      6.0553853      6.0553853      0              0              0              0.99082588   
    103000   0.46494619     1.0098482     -5.2925775     -3.2972503      1.1947376      0.80942315     1.391232       1.3835577      0.0028969745   0.1781922      0.43238147     6.0171226      6.0171226      6.0171226      0              0              0              1.0098482    
    104000   0.49065674     1.0078442     -5.2039288     -3.2646889      1.1058201      1.5772502      0.63057644     1.1096336     -0.13740646    -0.2243966      0.27993805     6.0211082      6.0211082      6.0211082      0              0              0              1.0078442    
    105000   0.46188291     1.0145264     -5.2672618     -3.0855535      1.3763877      2.1910498      1.027266       0.91084724    -0.27606744     0.17171898     0.24698374     6.0078597      6.0078597      6.0078597      0              0              0              1.0145264    
    106000   0.41517227     1.000226      -5.2788928     -4.1725556      0.44254784     0.50883863     0.30841356     0.51039133     0.23103643     0.14399931    -0.18142996     6.036356       6.036356       6.036356       0              0              0              1.000226     
    107000   0.41054857     1.0117571     -5.2886784     -3.7295676      0.87044875     0.66236386     0.71233586     1.2366465     -0.096160434    0.38040484    -0.064181475    6.013336       6.013336       6.013336       0              0              0              1.0117571    
    108000   0.44917825     1.019856      -5.3294848     -2.8202663      1.7048468      1.5185335      2.2815796      1.3144272      0.11534251    -0.038441872   -0.35247822     5.997376       5.997376       5.997376       0              0              0              1.019856     
    109000   0.41343265     1.0180141     -5.3914352     -3.8498681      0.85561202     1.3937688      0.70339095     0.46967627     0.18223354    -0.17273053     0.30549188     6.0009908      6.0009908      6.0009908      0              0              0              1.0180141    
    110000   0.39154423     1.001154      -5.386957      -4.6289126      0.15805908     0.06152597     0.41849259    -0.0058413363  -0.28247799     0.34249418    -0.11903027     6.0344903      6.0344903      6.0344903      0              0              0              1.001154     
    111000   0.39345566     1.0322939     -5.4234622     -3.0734345      1.6542933      1.1333864      1.6287173      2.2007763      0.0086802348  -0.11019963     0.63112534     5.9731915      5.9731915      5.9731915      0              0              0              1.0322939    
    112000   0.36826091     1.019793      -5.3409226     -3.3238386      1.3604544      0.74721738     1.5931509      1.740995       0.00032968432 -0.3599703      0.41553044     5.9974996      5.9974996      5.9974996      0              0              0              1.019793     
    113000   0.36376224     1.0250855     -5.4237175     -3.8621843      0.94924595     1.2056445      0.91416439     0.72792899    -0.37367756    -0.12095934     0.16825839     5.9871601      5.9871601      5.9871601      0              0              0              1.0250855    
    114000   0.33693045     1.0239527     -5.4759232     -4.0525157      0.85689839     0.3623189      0.94617969     1.2621966      0.10043295    -0.40403414     0.32474931     5.989367       5.989367       5.989367       0              0              0              1.0239527    
    115000   0.35789841     1.0183064     -5.4546113     -4.0750771      0.78258774     0.60888534     0.76709258     0.97178529     0.19204011     0.038625388    0.21325581     6.0004165      6.0004165      6.0004165      0              0              0              1.0183064    
    116000   0.3193794      1.0358018     -5.5436066     -3.6167808      1.3655183      1.3337839      0.87736881     1.8854021     -0.10323479     0.3286344      0.7709874      5.9664409      5.9664409      5.9664409      0              0              0              1.0358018    
    117000   0.33170078     1.0218469     -5.4694402     -3.9802817      0.92346632     0.25442947     1.4090766      1.1068928     -0.055013051    0.17890727     0.70090222     5.9934785      5.9934785      5.9934785      0              0              0              1.0218469    
    118000   0.29679299     1.0331762     -5.4818421     -3.4549898      1.4876691      1.3262461      1.2701031      1.8666583      0.092022266    0.47147249     0.36683598     5.9714908      5.9714908      5.9714908      0              0              0              1.0331762    
    119000   0.31520004     1.0310293     -5.5513491     -4.1419081      0.88012877     0.83921655     0.75830732     1.0428624      0.4066357     -0.047973221    0.43916836     5.9756326      5.9756326      5.9756326      0              0              0              1.0310293    
    120000   0.32578297     1.0257076     -5.5337094     -4.5180616      0.49366066     0.51358041     0.59040131     0.37700026    -0.1525737     -0.27278308     0.104151       5.9859493      5.9859493      5.9859493      0              0              0              1.0257076    
    121000   0.29445794     1.0400864     -5.5596198     -3.6741797      1.3672046      1.114418       0.93521392     2.0519819     -0.011172922    0.19192869     0.10764119     5.9582367      5.9582367      5.9582367      0              0              0              1.0400864    
    122000   0.26747492     1.0292504     -5.5964899     -4.3733101      0.77097724     0.59331709     0.92737085     0.79224377     0.11687586     0.12667145     0.29369707     5.9790734      5.9790734      5.9790734      0              0              0              1.0292504    
    123000   0.2521367      1.0338523     -5.5873034     -4.2088977      0.94183168     0.69847808     1.2034401      0.92357684     0.36422986     0.073892559    0.48629158     5.9701887      5.9701887      5.9701887      0              0              0              1.0338523    
    124000   0.26726853     1.0415146     -5.6215599     -3.7190243      1.4236911      1.1476527      1.4734649      1.6499556     -0.38508256     0.039437251    0.48910666     5.9555121      5.9555121      5.9555121      0              0              0              1.0415146    
    125000   0.2946236      1.0390693     -5.6531527     -4.1489441      1.0055196      0.70320165     1.6005875      0.71276966     0.22329248    -0.1783174      0.64870383     5.9601801      5.9601801      5.9601801      0              0              0              1.0390693    
    126000   0.25001284     1.0395098     -5.6599713     -4.1743788      1.0512736      1.114156       1.1287339      0.91093097     0.30121125     0.16413084     0.50898806     5.9593382      5.9593382      5.9593382      0              0              0              1.0395098    
    127000   0.23238216     1.0441988     -5.6622718     -3.9605327      1.2861764      1.1486642      1.2481527      1.4617124      0.079087486   -0.1052915      0.32416006     5.9504046      5.9504046      5.9504046      0              0              0              1.0441988    
    128000   0.22118248     1.0437791     -5.6937899     -4.3497855      0.9620698      0.84249291     0.68626301     1.3574535      0.016601181   -0.24205442     0.67525105     5.951202       5.951202       5.951202       0              0              0              1.0437791    
    129000   0.20372637     1.0410814     -5.700357      -4.5792971      0.77323796     0.57634324     0.55633287     1.1870378      0.061763702   -0.12276814     0.51653924     5.9563379      5.9563379      5.9563379      0              0              0              1.0410814    
    130000   0.21007554     1.0449937     -5.7296985     -4.5533032      0.81970976     0.72983013     0.7383831      0.99091604    -0.073160775    0.0071057071   0.56992571     5.9488954      5.9488954      5.9488954      0              0              0              1.0449937    
    131000   0.20255057     1.0449017     -5.7098781     -4.2207085      1.1274136      1.3675679      0.97566352     1.0390095      0.19742191    -0.095230803    0.25389927     5.94907        5.94907        5.94907        0              0              0              1.0449017    
    132000   0.16538756     1.04865       -5.7168817     -4.142498       1.2655706      1.1846416      1.1640273      1.448043      -0.031105409   -0.26906473     0.73705979     5.9419735      5.9419735      5.9419735      0              0              0              1.04865      
    133000   0.16513087     1.0425842     -5.7525959     -4.6978249      0.76612227     0.85504985     0.21987999     1.223437      -0.18680912    -0.057962303    0.64916037     5.9534748      5.9534748      5.9534748      0              0              0              1.0425842    
    134000   0.16761903     1.0492627     -5.746661      -4.3075555      1.1340947      0.75113399     1.1333223      1.5178279      0.06369808    -0.14130982     0.3300957      5.9408167      5.9408167      5.9408167      0              0              0              1.0492627    
    135000   0.14663336     1.057909      -5.766528      -4.2467481      1.2511501      1.3068035      1.3775698      1.069077       0.19543693    -0.14716797     0.63670815     5.9245876      5.9245876      5.9245876      0              0              0              1.057909     
    136000   0.13794715     1.0457507     -5.7665695     -4.6966224      0.82144764     0.44477302     0.89183142     1.1277385     -0.014012232   -0.28621709     0.45395899     5.9474596      5.9474596      5.9474596      0              0              0              1.0457507    
    137000   0.12546696     1.0519954     -5.8044403     -4.6437273      0.93097147     0.96382414     0.75627483     1.0728154      0.057116317    0.19381402     0.32932798     5.9356682      5.9356682      5.9356682      0              0              0              1.0519954    
    138000   0.11966623     1.0583072     -5.8289037     -4.3960476      1.2067149      1.5135582      1.0231526      1.0834338     -0.083320224   -0.054223336    0.59173647     5.9238443      5.9238443      5.9238443      0              0              0              1.0583072    
    139000   0.12292789     1.0554003     -5.8203529     -4.6266623      0.96926112     0.50453545     1.1990592      1.2041888     -0.00072467939 -0.10735759     0.37380724     5.9292782      5.9292782      5.9292782      0              0              0              1.0554003    
    140000   0.10345587     1.055464      -5.8619734     -4.9540689      0.72298957     0.66152036     0.54685213     0.96059622    -0.1846786      0.070581195    0.60538212     5.9291589      5.9291589      5.9291589      0              0              0              1.055464     
Loop time of 74.1406 on 1 procs for 140000 steps with 200 atoms

Performance: 326298.751 tau/day, 1888.303 timesteps/s
50.0% CPU use with 1 MPI tasks x 1 OpenMP threads

MPI task timing breakdown:
Section |  min time  |  avg time  |  max time  |%varavg| %total
---------------------------------------------------------------
Pair    | 66.116     | 66.116     | 66.116     |   0.0 | 89.18
Bond    | 1.1422     | 1.1422     | 1.1422     |   0.0 |  1.54
Neigh   | 0.28949    | 0.28949    | 0.28949    |   0.0 |  0.39
Comm    | 3.3001     | 3.3001     | 3.3001     |   0.0 |  4.45
Output  | 0.82985    | 0.82985    | 0.82985    |   0.0 |  1.12
Modify  | 1.8435     | 1.8435     | 1.8435     |   0.0 |  2.49
Other   |            | 0.6192     |            |       |  0.84

Nlocal:            200 ave         200 max         200 min
Histogram: 1 0 0 0 0 0 0 0 0 0
Nghost:           4280 ave        4280 max        4280 min
Histogram: 1 0 0 0 0 0 0 0 0 0
Neighs:          62578 ave       62578 max       62578 min
Histogram: 1 0 0 0 0 0 0 0 0 0

Total # of neighbors = 62578
Ave neighs/atom = 312.89
Ave special neighs/atom = 8.36
Neighbor list builds = 102
Dangerous builds = 0
System init for write_data ...
Generated 0 of 1 mixed pair_coeff terms from geometric mixing rule
WARNING: Not all mixed pair coeffs generated from mixing. Use write_data with 'pair ij' option to store all pair coeffs. (src/write_data.cpp:309)
Total wall time: 0:01:14
