LAMMPS (23 Jun 2022)
OMP_NUM_THREADS environment is not set. Defaulting to 1 thread. (src/comm.cpp:98)
  using 1 OpenMP thread(s) per MPI task
Reading data file ...
  orthogonal box = (0 0 0) to (200 200 200)
  2 by 2 by 3 MPI processor grid
  reading atoms ...
  200 atoms
  scanning bonds ...
  1 = max bonds/atom
  reading bonds ...
  80 bonds
Finding 1-2 1-3 1-4 neighbors ...
  special bond factors lj:    0        0        0       
  special bond factors coul:  0        0        0       
     1 = max # of 1-2 neighbors
     0 = max # of 1-3 neighbors
     0 = max # of 1-4 neighbors
     1 = max # of special neighbors
  special bonds CPU = 0.001 seconds
  read_data CPU = 0.007 seconds
Generated 0 of 1 mixed pair_coeff terms from geometric mixing rule
Neighbor list info ...
  update every 1 steps, delay 0 steps, check yes
  max neighbors/atom: 2000, page size: 100000
  master list distance cutoff = 5.5
  ghost atom cutoff = 5.5
  binsize = 2.75, bins = 73 73 73
  1 neighbor lists, perpetual/occasional/extra = 1 0 0
  (1) pair lj/cut, perpetual
      attributes: half, newton on
      pair build: half/bin/newton
      stencil: half/bin/3d
      bin: standard
Setting up Verlet run ...
  Unit style    : lj
  Current step  : 0
  Time step     : 0.002
Per MPI rank memory allocation (min/avg/max) = 6.201 | 6.353 | 6.44 Mbytes
   Step          Temp         Density         PotEng        Enthalpy        Press           Pxx            Pyy            Pzz            Pxy            Pxz            Pyz             Lx             Ly             Lz             Xy             Yz             Xz          Density    
         0   1              2.75e-05       2.2913944e-28  2.4875         2.4875e-05     2.4540872e-05  2.7057051e-05  2.3027077e-05 -8.5634887e-07  1.0219777e-06  4.891355e-07   200            200            200            0              0              0              2.75e-05     
       100   2.5460692      0.00020837979  4.84198       -3.056329      -0.0022160845  -0.0064438455  -9.1411273e-05 -0.00011299676 -0.00011418486  0.00013728392 -2.0090717e-05  101.8253       101.8253       101.8253       0              0              0              0.00020837979
       200   4.2640173      0.00048094567  1.6515352      17.205317      0.0040179672   0.0058416615   0.0033636118   0.0028486284  -4.2624545e-05 -8.577244e-05   7.8886212e-05  77.050516      77.050516      77.050516      0              0              0              0.00048094567
       300   3.4109644      0.00083253534  0.10426069     9.1560939      0.0029978604   0.0036044072   0.0028717818   0.0025173924  -3.4075455e-05 -8.063125e-05   5.2622608e-05  64.171177      64.171177      64.171177      0              0              0              0.00083253534
       400   2.6554479      0.0012518403   1.5386793      0.87742889    -0.0052628578  -0.004732026   -0.005885033   -0.0051715142  -0.00041432075 -0.00027593371 -0.00020892442  56.013312      56.013312      56.013312      0              0              0              0.0012518403 
       500   1.8154644      0.0017357846   1.6570554      11.41097       0.011115861    0.010035937    0.012927688    0.010383957   -0.00050405833  0.00064674217  0.00020150941  50.231439      50.231439      50.231439      0              0              0              0.0017357846 
       600   1.8884814      0.0022800067   0.34761978     2.2581057     -0.0018821924  -0.0020909671  -0.0024128869  -0.0011427231   0.00017429844 -0.00044480723 -0.00015655223  45.866491      45.866491      45.866491      0              0              0              0.0022800067 
       700   1.9996064      0.0028744089   0.25892311     2.6207512     -0.001626875   -0.0008209218  -0.002028473   -0.0020312303  -0.00037540243 -0.00043720655  5.9971933e-05  42.457854      42.457854      42.457854      0              0              0              0.0028744089 
       800   1.0006203      0.0035284224   0.97895731     7.7750497      0.017009134    0.016028873    0.019793174    0.015205356   -0.0012330059   0.0014085032   2.3589073e-05  39.653425      39.653425      39.653425      0              0              0              0.0035284224 
       900   0.95359025     0.0042288129   0.68115345    -1.4275724     -0.013578177   -0.013726988   -0.016035804   -0.01097174     0.0011866862  -0.0017341447  -0.00027102252  37.330867      37.330867      37.330867      0              0              0              0.0042288129 
      1000   1.4234756      0.0049742672   0.049908616    3.9900411      0.0082102321   0.0077742939   0.010030527    0.0068258753  -0.001027805    0.00033908783  0.00031501178  35.364256      35.364256      35.364256      0              0              0              0.0049742672 
      1100   0.91513995     0.0057768744   0.34907821     5.3579912      0.019132308    0.021653593    0.020277297    0.015466033   -0.0017831346   0.0015404194  -0.00024809406  33.644178      33.644178      33.644178      0              0              0              0.0057768744 
      1200   0.6784176      0.0066114643   0.70119149    -2.3333185     -0.024324468   -0.030456783   -0.02485133    -0.017665292    0.0022696822  -0.0025922883   6.6081221e-05  32.164367      32.164367      32.164367      0              0              0              0.0066114643 
      1300   1.0051024      0.007495925    0.25450498     4.9783675      0.021968152    0.025559291    0.023559928    0.016785237   -0.0025696747   0.0014539941   0.00029922772  30.846021      30.846021      30.846021      0              0              0              0.007495925  
      1400   1.0361444      0.0084299049  -0.0074389826   3.3313777      0.013735925    0.019191067    0.012214648    0.0098020609  -0.001331392    0.00082137057 -0.00026445879  29.661971      29.661971      29.661971      0              0              0              0.0084299049 
      1500   0.88374285     0.0093838492   0.42339601    -0.99657254    -0.023365399   -0.037641999   -0.018923047   -0.01353115     0.0024648648  -0.0014704304   0.001151112    28.62072       28.62072       28.62072       0              0              0              0.0093838492 
      1600   0.84713603     0.01039807     0.49645357     5.516867       0.035505277    0.047110328    0.03379554     0.025609962   -0.0036757524  -0.00039391313 -0.00025100922  27.658162      27.658162      27.658162      0              0              0              0.01039807   
      1700   1.10226        0.011447517    0.051457531    1.4639466     -0.0024209837  -0.003161178   -0.0023694198  -0.0017323534  -0.00013134149  0.001435322    0.00049229668  26.785749      26.785749      26.785749      0              0              0              0.011447517  
      1800   1.2042078      0.012516759    0.10007907     1.0785138     -0.0093175361  -0.022977393    0.00013071931 -0.0051059347   0.0017215872  -0.00042866549  0.00086163756  26.000215      26.000215      26.000215      0              0              0              0.012516759  
      1900   0.91090472     0.013651636    0.47321147     5.7098466      0.048117175    0.06743127     0.041172841    0.035747414   -0.0060444473  -0.0018845343   1.0988947e-05  25.258797      25.258797      25.258797      0              0              0              0.013651636  
      2000   0.97922725     0.014802401    0.30704338    -0.013101119   -0.023975061   -0.040007063   -0.018042326   -0.013875794    0.0038282227   0.0075508585  -0.00046146882  24.586507      24.586507      24.586507      0              0              0              0.014802401  
      2100   1.2401933      0.01598538    -0.025240445    2.7193927      0.012986592    0.011764597    0.017134048    0.010061129   -0.00061150323  0.00028259148  0.0021526085   23.9644        23.9644        23.9644        0              0              0              0.01598538   
      2200   0.96597594     0.017232526    0.21255386     4.8680737      0.050347188    0.072404573    0.040932035    0.037704956   -0.0041502153  -0.0031528726   0.0019094637   23.371751      23.371751      23.371751      0              0              0              0.017232526  
      2300   0.8213034      0.018476797    0.37902224    -1.110678      -0.045612421   -0.072741209   -0.036290849   -0.027805204    0.004146039    0.0010356357  -0.0029477953   22.834876      22.834876      22.834876      0              0              0              0.018476797  
      2400   1.0392812      0.019775971    0.059125043    3.8353317      0.040002825    0.051232739    0.040261759    0.028513978   -0.0040696796  -0.00074283379 -0.00013269595  22.323466      22.323466      22.323466      0              0              0              0.019775971  
      2500   1.0016685      0.021120541    0.0052169351   3.5844552      0.040018588    0.056573374    0.03130971     0.032172679   -0.0036570774  -0.0011060763  -0.0018799481   21.839325      21.839325      21.839325      0              0              0              0.021120541  
      2600   0.86064925     0.022457503    0.26370086    -0.71229645    -0.046150501   -0.07374985    -0.028323624   -0.03637803    -0.0012511176   0.0034794321   0.0035813114   21.397042      21.397042      21.397042      0              0              0              0.022457503  
      2700   0.94900126     0.023864733    0.16365332     4.2924978      0.058847396    0.074909689    0.053718751    0.047913747   -0.0025498877  -0.002960288    0.0016650445   20.967921      20.967921      20.967921      0              0              0              0.023864733  
      2800   1.0663485      0.025298333   -0.044638209    2.2667945      0.016556783    0.017522472    0.013853356    0.01829452    -0.0016686286   0.002621744   -0.0037957832   20.564126      20.564126      20.564126      0              0              0              0.025298333  
      2900   1.0449133      0.026728909    0.081036554    0.39486581    -0.030269367   -0.037487958   -0.020458962   -0.032861182    0.0065640685   0.0021529404   0.0032926485   20.190504      20.190504      20.190504      0              0              0              0.026728909  
      3000   0.97079191     0.028240379    0.19125357     4.878262       0.083132012    0.10603684     0.073720091    0.06963911    -0.0037353718   0.0043086867   0.00043750636  19.82367       19.82367       19.82367       0              0              0              0.028240379  
      3100   1.0348486      0.029745443    0.05601215     1.0459147     -0.014997353   -0.028187287   -0.003260423   -0.013544348   -0.0053839107   0.0024135742  -0.0020718787   19.48352       19.48352       19.48352       0              0              0              0.029745443  
      3200   1.1097303      0.031275548   -0.039485073    1.6223304      0.00015760003  0.0041743381   0.0050952981  -0.008796836   -0.0038539377  -0.00056040924  0.008021169    19.160459      19.160459      19.160459      0              0              0              0.031275548  
      3300   0.98201921     0.032881806    0.060481863    4.4320047      0.086863541    0.10087225     0.08184082     0.077877547   -0.0066430957   0.00084719167  0.0044085606   18.843244      18.843244      18.843244      0              0              0              0.032881806  
      3400   0.94359969     0.034459616    0.057456545    0.2263992     -0.038825959   -0.0555705     -0.044138631   -0.016768745   -0.0028100333  -0.0020424877  -0.014945751    18.551146      18.551146      18.551146      0              0              0              0.034459616  
      3500   1.0094526      0.036089744   -0.059132838    2.4539232      0.033020409    0.033395711    0.044496835    0.02116868     0.0054131086   0.012242525    0.0018258966   18.267522      18.267522      18.267522      0              0              0              0.036089744  
      3600   0.99395451     0.03777634    -0.1129351      3.2852847      0.065756337    0.073378909    0.069998248    0.053891854   -0.010526248    0.0023767657   0.011048683    17.991509      17.991509      17.991509      0              0              0              0.03777634   
      3700   0.90194193     0.039439284    0.015977464    0.315165      -0.037537622   -0.048388551   -0.04703629    -0.017188025    0.0085761098  -0.0084561035   0.0016542168   17.735001      17.735001      17.735001      0              0              0              0.039439284  
      3800   0.95202714     0.041164136   -0.039635106    2.9391226      0.05829804     0.071942544    0.057886869    0.045064707   -0.0095419217   0.00018442536  0.0067533051   17.483749      17.483749      17.483749      0              0              0              0.041164136  
      3900   1.0022271      0.042925619   -0.13052544     2.4115181      0.040826933    0.028254847    0.055982614    0.038243337   -0.0005031782   0.0041648627   0.00360494     17.241248      17.241248      17.241248      0              0              0              0.042925619  
      4000   0.99815517     0.04467175    -0.074765577    0.65960787    -0.030676218   -0.028438666   -0.033404837   -0.030185153    0.0033492421   0.0094738427   0.0036058884   17.013614      17.013614      17.013614      0              0              0              0.04467175   
      4100   1.0176357      0.046489978   -0.074319575    3.2900866      0.078001093    0.081744078    0.079795509    0.072463693   -0.0062362672   0.0033746857   0.010470562    16.788856      16.788856      16.788856      0              0              0              0.046489978  
      4200   1.0561308      0.048308819   -0.14368696     2.0779677      0.028343197    0.028854264    0.032375506    0.023799822   -0.01478647     0.0074672432   0.00086346065  16.575453      16.575453      16.575453      0              0              0              0.048308819  
      4300   1.0823606      0.050119065   -0.17887951     1.4284051     -0.00037081315  0.018157922    0.0016367649  -0.020907126    0.00085507915  0.02563927    -0.00083211704  16.373439      16.373439      16.373439      0              0              0              0.050119065  
      4400   1.0403451      0.052015336   -0.18018464     3.245444       0.088563845    0.089745899    0.090120514    0.085825123   -0.0011499217  -0.006295816    0.0077791737   16.172001      16.172001      16.172001      0              0              0              0.052015336  
      4500   1.0084746      0.053894251   -0.20968929     1.1841793     -0.0054521242  -0.0045799109  -0.00013182875 -0.011644633   -0.00031535093  0.0088521876   0.0039122467   15.981839      15.981839      15.981839      0              0              0              0.053894251  
      4600   0.99333389     0.055811297   -0.24670479     1.6463275      0.020826819    0.020953078    0.046199158   -0.0046717779  -0.020196127    0.017258965    0.0079127641   15.796718      15.796718      15.796718      0              0              0              0.055811297  
      4700   0.95681935     0.057787984   -0.27270354     2.6664126      0.079383001    0.074895983    0.075438247    0.087814774    0.010330534   -0.0030155028  -0.00033052119  15.614511      15.614511      15.614511      0              0              0              0.057787984  
      4800   0.93580181     0.05973756    -0.28326438     0.81507969    -0.01620192    -0.023309104   -0.0085916731  -0.016704982   -0.012099954   -0.010676646   -0.010185486    15.442765      15.442765      15.442765      0              0              0              0.05973756   
      4900   0.93340706     0.061752343   -0.28665291     1.6062736      0.028058946    0.0277035      0.044046125    0.012427214    0.0015697017   0.00041299468  0.0064800814   15.272955      15.272955      15.272955      0              0              0              0.061752343  
      5000   0.96390372     0.063817867   -0.33354287     2.2793582      0.068127008    0.081072159    0.047007119    0.076301744    0.0042155015   0.0042739149   0.0078308642   15.106371      15.106371      15.106371      0              0              0              0.063817867  
      5100   1.0161635      0.065847009   -0.37963373     0.79886853    -0.020240282   -0.015066573   -0.010179402   -0.035474872   -0.011161383   -0.0051752444  -0.0056759611   14.949576      14.949576      14.949576      0              0              0              0.065847009  
      5200   1.0449654      0.067934956   -0.39322112     1.9682056      0.049519393    0.046004768    0.062852175    0.039701236   -0.015146365   -0.019058159    0.020210333    14.794824      14.794824      14.794824      0              0              0              0.067934956  
      5300   1.0294403      0.070059926   -0.37715883     2.1309041      0.061883502    0.093089616    0.04422477     0.048336121   -0.012182941   -0.0016671695   0.0070164852   14.643706      14.643706      14.643706      0              0              0              0.070059926  
      5400   1.0357816      0.072158451   -0.3936105      0.47890372    -0.044173425   -0.05134917     0.019998094   -0.1011692      0.0091087381   0.014283611   -0.0090226395   14.50035       14.50035       14.50035       0              0              0              0.072158451  
      5500   1.0715633      0.074356267   -0.48020325     2.343812       0.08278604     0.086884535    0.075348114    0.08612547     0.0084385485  -0.0096087481   0.0045932883   14.356052      14.356052      14.356052      0              0              0              0.074356267  
      5600   1.0239101      0.076515371   -0.46352636     1.5801489      0.035857154    0.024606147    0.017309691    0.065655622   -0.034486688    0.0038480916   0.0007703489   14.219729      14.219729      14.219729      0              0              0              0.076515371  
      5700   1.0355086      0.078702145   -0.54220376     0.96895367    -0.0024568822   0.00057250918  0.01494724    -0.022890395    0.0074995661   0.0024744785  -0.0059495484   14.08679       14.08679       14.08679       0              0              0              0.078702145  
      5800   0.9854431      0.080953226   -0.54476563     1.6472975      0.053082449    0.046695466    0.066434492    0.04611739    -0.019213187    0.011646359    0.0011767344   13.954989      13.954989      13.954989      0              0              0              0.080953226  
      5900   0.95664252     0.083199167   -0.56582509     0.92848896     0.0050316655  -0.0024155765   0.023984605   -0.0064740318  -0.0070615417  -0.010492983   -0.0068763038   13.828272      13.828272      13.828272      0              0              0              0.083199167  
      6000   0.96041862     0.08547857    -0.61046635     0.77391029    -0.003811423   -0.0043255192   0.021671628   -0.028780378   -0.0096085407  -0.013386621    0.0025733518   13.704246      13.704246      13.704246      0              0              0              0.08547857   
      6100   0.94649329     0.087805316   -0.60732314     1.7632354      0.076463848    0.074953522    0.087062401    0.06737562     0.024135223   -0.0097643353  -0.018941896    13.582111      13.582111      13.582111      0              0              0              0.087805316  
      6200   0.9304818      0.090088977   -0.57476757     0.83648104     0.0018430997  -0.029692537    0.037453798   -0.0022319626  -0.034505048    0.015295069    0.046970893    13.466364      13.466364      13.466364      0              0              0              0.090088977  
      6300   1.005988       0.092434572   -0.66084583     1.1038694      0.022123637    0.023154053    0.0098464973   0.033370361    0.0068165934  -0.018475985    0.002924776    13.35148       13.35148       13.35148       0              0              0              0.092434572  
      6400   1.0036894      0.094822826   -0.62637089     1.6198352      0.064496727    0.091052188    0.060729874    0.04170812     0.0015762494  -0.0095395949  -0.014900127    13.238433      13.238433      13.238433      0              0              0              0.094822826  
      6500   0.99443244     0.097179397   -0.56674846     0.72319466    -0.017160758   -0.0037469104  -0.029450018   -0.018285345   -0.020319817    0.028769805   -0.015544119    13.130547      13.130547      13.130547      0              0              0              0.097179397  
      6600   1.0425191      0.099618416   -0.59801535     1.6117035      0.059205866    0.065449802    0.050036963    0.062130831   -0.031622954   -0.03120726    -0.0037632176   13.0225        13.0225        13.0225        0              0              0              0.099618416  
      6700   1.0912941      0.10203602    -0.65107939     1.1798706      0.018755472    0.035451876    0.027585282   -0.0067707424   0.0067738541  -0.028524316    0.022710127    12.918826      12.918826      12.918826      0              0              0              0.10203602   
      6800   1.0746572      0.1044742     -0.63822711     1.2087836      0.023087357    0.021824869    0.011531388    0.035905815   -0.0060525191   0.052541057    0.02007768     12.817536      12.817536      12.817536      0              0              0              0.1044742    
      6900   1.0628766      0.10696396    -0.67544547     1.8022061      0.086670775    0.11627244     0.10734908     0.036390805   -0.013080604   -0.0016309464   0.00061245257  12.717305      12.717305      12.717305      0              0              0              0.10696396   
      7000   1.0566689      0.10939011    -0.74249267     0.78931751    -0.0045017167   0.021574016    0.0014172017  -0.036496368    0.034347798    0.005998335   -0.044710608    12.622582      12.622582      12.622582      0              0              0              0.10939011   
      7100   1.0021152      0.11193112    -0.7572733      1.0911569      0.035896646    0.013327418    0.056932117    0.037430402   -0.041275753    0.0023705798   0.018729079    12.526333      12.526333      12.526333      0              0              0              0.11193112   
      7200   0.98800882     0.11450095    -0.82606387     1.2151948      0.05898418     0.022848625    0.048643549    0.10546036     0.013455871    0.0090693835  -0.012622367    12.43191       12.43191       12.43191       0              0              0              0.11450095   
      7300   0.93099864     0.11704133    -0.81185242     0.5663119     -0.0012077766   0.0086478343  -0.046156217    0.033885053    0.017327304    0.039912944   -0.024979614    12.341307      12.341307      12.341307      0              0              0              0.11704133   
      7400   0.92733966     0.11964547    -0.85100725     1.0577311      0.057069142   -0.017652114    0.046979788    0.14187975    -0.00076698423 -0.028792491   -0.0085166198   12.251111      12.251111      12.251111      0              0              0              0.11964547   
      7500   0.93665694     0.12225263    -0.87882314     0.90365871     0.042735226    0.063358744    0.053847432    0.010999502   -0.031603072    0.027299975    0.014924185    12.163395      12.163395      12.163395      0              0              0              0.12225263   
      7600   0.92924288     0.12488368    -0.84956072     0.19788822    -0.03853752    -0.075369418   -0.032695596   -0.0075475448   0.03930843    -0.034685178    0.017125225    12.077369      12.077369      12.077369      0              0              0              0.12488368   
      7700   1.0095919      0.12759914    -0.93134222     1.2285296      0.07575397     0.093471416    0.054742327    0.079048167   -0.0024355527   0.020134531    0.01652561     11.99108       11.99108       11.99108       0              0              0              0.12759914   
      7800   1.0295011      0.13029405    -0.92452879     0.92163813     0.036676178   -9.4892625e-05  0.022757022    0.087366405   -0.058136134    0.012858194   -0.042032703    11.907832      11.907832      11.907832      0              0              0              0.13029405   
      7900   1.0304559      0.13298844    -0.90035525     0.59986342    -0.0045623231   0.057437785   -0.034746714   -0.036378041   -0.010511512   -0.022775867    0.015556692    11.826864      11.826864      11.826864      0              0              0              0.13298844   
      8000   1.0530343      0.13572284    -0.93923421     1.3642632      0.090298111    0.069397928    0.1613028      0.040193602   -0.0023998918  -0.027767565    0.060679914    11.746899      11.746899      11.746899      0              0              0              0.13572284   
      8100   1.0636309      0.1384365     -1.0005818      0.74337727     0.019694479    0.043018008   -0.034300588    0.050366018    0.083139517   -0.0054787205  -0.0082802554   11.669637      11.669637      11.669637      0              0              0              0.1384365    
      8200   0.98435647     0.14123252    -0.94385372     0.68675866     0.02073041    -0.019769172    0.052762964    0.029197439    0.031797915    0.016959019   -0.04425892     11.592114      11.592114      11.592114      0              0              0              0.14123252   
      8300   0.9419205      0.14405294    -0.93791473     0.26475535    -0.02660347     0.013155528   -0.065917017   -0.027048919    0.023548506   -0.003633167    0.011029599    11.515961      11.515961      11.515961      0              0              0              0.14405294   
      8400   0.97078805     0.14694845    -1.018138       0.92364984     0.065844481    0.059199453    0.049974055    0.088359934   -0.008517663   -0.0058597696   0.040259547    11.439821      11.439821      11.439821      0              0              0              0.14694845   
      8500   0.94081328     0.14979447    -0.9857693      0.62138299     0.02764232     0.041926528   -0.016796787    0.057797219   -0.028276797    0.013279107   -0.010410203    11.366907      11.366907      11.366907      0              0              0              0.14979447   
      8600   0.94891923     0.15270761    -0.99025225     0.60537992     0.024901087    0.049108279   -0.016040337    0.041635318    0.05019767     0.0085341883   0.011052613    11.294162      11.294162      11.294162      0              0              0              0.15270761   
      8700   1.0557623      0.15564415    -1.1261085      0.93320008     0.068424462   -0.020798701    0.099699519    0.12637257     0.0093068219  -0.028728678    0.010685657    11.222681      11.222681      11.222681      0              0              0              0.15564415   
      8800   1.0650918      0.15843908    -1.1183605      0.38099542    -0.013005474    0.019000668   -0.027506043   -0.030511047   -0.035837424    0.062821254   -0.0013278533   11.156298      11.156298      11.156298      0              0              0              0.15843908   
      8900   1.0615765      0.1613136     -1.1222833      0.8830901      0.06173478    -0.0037795141   0.096287405    0.092696449    0.049787948   -0.061411798   -0.02667184     11.089635      11.089635      11.089635      0              0              0              0.1613136    
      9000   1.0814128      0.16420715    -1.1847114      0.3839457     -0.0067700263   0.0080069763  -0.016552474   -0.011764581   -0.044779462   -0.055148567    0.035102705    11.02411       11.02411       11.02411       0              0              0              0.16420715   
      9100   1.0726886      0.16717046    -1.2295552      0.69065442     0.048513162    0.094230857    0.037172062    0.014136567    0.030509108   -0.033574877    0.079516151    10.958583      10.958583      10.958583      0              0              0              0.16717046   
      9200   0.99725541     0.17008009    -1.1919086      0.7486182      0.069906482    0.11142534     0.082937098    0.015357006    0.0051750181   0.0048033881  -0.0247037      10.895732      10.895732      10.895732      0              0              0              0.17008009   
      9300   0.98668767     0.17299309    -1.2638614      0.37027609     0.0253995      0.013816367    0.070922535   -0.0085404022  -0.03661378    -0.027873585    0.0150233      10.834228      10.834228      10.834228      0              0              0              0.17299309   
      9400   0.96215551     0.17609144    -1.3179266     -0.048209119   -0.026621761    0.020513114   -0.133952       0.033573606   -0.0070730775   0.042831248    0.077215413    10.770309      10.770309      10.770309      0              0              0              0.17609144   
      9500   0.92825278     0.17920199    -1.3300496      0.92658496     0.14193079     0.036110366    0.19996491     0.18971709    -0.057212405    0.050906319    0.022110505    10.707628      10.707628      10.707628      0              0              0              0.17920199   
      9600   0.94034463     0.18216031    -1.3972885      0.37441339     0.060980244    0.054524893    0.065307938    0.063107901   -0.0056594954  -0.067310752   -0.033319716    10.649347      10.649347      10.649347      0              0              0              0.18216031   
      9700   0.95094486     0.18523269    -1.4427825     -0.30079897    -0.046695757   -0.093268567   -0.069076436    0.022257731    0.0098429855   0.0057585761   0.051133503    10.59014       10.59014       10.59014       0              0              0              0.18523269   
      9800   0.94228724     0.18849479    -1.4376844      0.62998387     0.11332043     0.11833378     0.14334784     0.07827967     0.024730628   -0.081683606    0.030163321    10.528692      10.528692      10.528692      0              0              0              0.18849479   
      9900   1.016212       0.1916239     -1.5199796     -0.038139206   -0.0060720589   0.041161692    0.014332212   -0.07371008     0.048076928    0.016561687    0.11817133     10.471069      10.471069      10.471069      0              0              0              0.1916239    
     10000   1.001754       0.19479658    -1.4645419     -0.0550689     -0.015166649   -0.09468761     0.078511705   -0.029324041   -0.06538818    -0.010931661   -0.013970581    10.413909      10.413909      10.413909      0              0              0              0.19479658   
     10100   1.0741599      0.19809044    -1.5534222      0.29171094     0.043570797    0.030565236    0.035669202    0.064477952   -0.0056697473  -0.095142616   -0.021797522    10.355865      10.355865      10.355865      0              0              0              0.19809044   
     10200   1.0945889      0.20136927    -1.5870186     -0.24935029    -0.054187689   -0.077297548   -0.066360261   -0.018905259    0.0089887399  -0.0033406538   0.01498267     10.29935       10.29935       10.29935       0              0              0              0.20136927   
     10300   1.033304       0.20470571    -1.5363361      0.233378       0.042338345   -0.0096438504   0.14275163    -0.006092747   -0.032601116    0.090877271    0.10916086     10.243088      10.243088      10.243088      0              0              0              0.20470571   
     10400   1.0599599      0.20785129    -1.6487993     -0.027092508    0.0075047055   0.0029965638  -0.053548871    0.073066424   -0.010316219   -0.109626      -0.068308128    10.191153      10.191153      10.191153      0              0              0              0.20785129   
     10500   0.98955219     0.21117124    -1.6482283     -0.46980288    -0.057300583   -0.03699125    -0.061188166   -0.073722332    0.03216443    -0.053237031    0.037990403    10.137464      10.137464      10.137464      0              0              0              0.21117124   
     10600   0.93269141     0.21456648    -1.636567      -0.33259254    -0.017178487   -0.071818311    0.074337435   -0.054054584    0.049528384    0.072138047    0.012375916    10.083708      10.083708      10.083708      0              0              0              0.21456648   
     10700   0.90182333     0.21805145    -1.6371137     -0.44078476    -0.029663403   -0.11470336     0.11101023    -0.085297079    0.050049534   -0.072988539    0.044162716    10.029699      10.029699      10.029699      0              0              0              0.21805145   
     10800   0.88083669     0.22161994    -1.6103885     -0.55510652    -0.052255314   -0.010139662   -0.094217415   -0.052408864   -0.055681131   -0.015203632   -0.085247084    9.9755753      9.9755753      9.9755753      0              0              0              0.22161994   
     10900   0.97984081     0.22515256    -1.7173879     -0.17776155     0.015804476   -0.058816251    0.040246507    0.065983172   -0.034371689    0.026341595    0.0066586361   9.923128       9.923128       9.923128       0              0              0              0.22515256   
     11000   1.0547502      0.22849434    -1.7693629     -0.047853076    0.030596454    0.070733681    0.075307209   -0.054251527    0.049320639    0.0029858219   0.073466333    9.8745144      9.8745144      9.8745144      0              0              0              0.22849434   
     11100   1.0346504      0.23181023    -1.696758       0.24935018     0.084693442    0.046901893    0.16980501     0.037373425   -0.068947788    0.087046189   -0.039287703    9.8272053      9.8272053      9.8272053      0              0              0              0.23181023   
     11200   1.0481318      0.23511595    -1.6986678      0.43649673     0.12200974     0.019874261    0.080184345    0.26597062    -0.038285143    0.051529219    0.013931349    9.780931       9.780931       9.780931       0              0              0              0.23511595   
     11300   1.0441128      0.23839269    -1.7047672     -0.10841005     0.0082394548   0.054240541   -0.065452414    0.035930237    0.093897564   -0.092748506    0.026181573    9.7359107      9.7359107      9.7359107      0              0              0              0.23839269   
     11400   1.0477066      0.24187401    -1.7511375     -0.072214822    0.025335341    0.082586133    0.045683904   -0.052264013   -0.033357933    0.08602752    -0.0091351779   9.6889747      9.6889747      9.6889747      0              0              0              0.24187401   
     11500   1.0368415      0.24531874    -1.7907967     -0.44176946    -0.044259655    0.1185733     -0.078332265   -0.17302       -0.08366781     0.022334012    0.051799798    9.6434105      9.6434105      9.6434105      0              0              0              0.24531874   
     11600   0.98205148     0.24884869    -1.7700221      0.049888526    0.080128994    0.035386719   -0.034294748    0.23929501     0.050937408    0.018821932    0.048140507    9.5975955      9.5975955      9.5975955      0              0              0              0.24884869   
     11700   0.97893855     0.25223187    -1.8115314     -0.027798798    0.073988044    0.18923268     0.03810151    -0.005370055   -0.035621117   -0.10220184     0.010563405    9.5544914      9.5544914      9.5544914      0              0              0              0.25223187   
     11800   1.0095152      0.255671      -1.8944068     -1.2633312     -0.2035201     -0.049483606   -0.25545984    -0.30561685    -0.011309839    0.040286245   -0.10742761     9.5114575      9.5114575      9.5114575      0              0              0              0.255671     
     11900   0.99022362     0.25944314    -1.8992646      0.24873651     0.15804624     0.009873573    0.11013518     0.35412996    -0.032073864    0.13282202     0.1707523      9.4651354      9.4651354      9.4651354      0              0              0              0.25944314   
     12000   1.0316074      0.26278657    -1.9929254     -0.94936081    -0.11851899    -0.094995195   -0.11207669    -0.1484851     -0.058539579   -0.11671251    -0.019426863    9.4248223      9.4248223      9.4248223      0              0              0              0.26278657   
     12100   1.0103697      0.26653511    -2.0173104     -0.46850731     0.0098923995   0.020840259   -0.0098006971   0.018637637    0.0047793777  -0.13530516     0.018886609    9.3804301      9.3804301      9.3804301      0              0              0              0.26653511   
     12200   1.0094263      0.27024811    -2.0718764     -0.062443182    0.12354381    -0.0088415002   0.18490485     0.19456808    -0.051369973    0.058887589    0.041032172    9.3372718      9.3372718      9.3372718      0              0              0              0.27024811   
     12300   1.0241315      0.27377001    -2.1537841     -0.80910631    -0.045754062   -0.13999223     0.072269133   -0.069539086   -0.09111055    -0.041097504   -0.021512622    9.2970594      9.2970594      9.2970594      0              0              0              0.27377001   
     12400   0.96153227     0.27740198    -2.1217537     -0.86939518    -0.046081109   -0.083798361    0.073895183   -0.12834015    -0.0060760237  -0.038169026    0.0084724474   9.2563061      9.2563061      9.2563061      0              0              0              0.27740198   
     12500   0.95317142     0.28127048    -2.1654136     -0.23358244     0.13020851     0.28450147     0.038892975    0.067231083    2.6358125e-05 -0.047280107    0.099795949    9.213674       9.213674       9.213674       0              0              0              0.28127048   
     12600   0.97865275     0.28495755    -2.2382389     -1.0624439     -0.073789563   -0.23399793     0.087705376   -0.075076138    0.025710346    0.012000115   -0.10370209     9.1737627      9.1737627      9.1737627      0              0              0              0.28495755   
     12700   0.99612202     0.28875624    -2.2916709     -1.16358       -0.094140091    0.088732551   -0.038165492   -0.33298733     0.050524693    0.015788547   -0.034659214    9.1333571      9.1333571      9.1333571      0              0              0              0.28875624   
     12800   0.91314897     0.29266899    -2.1888477     -0.67950638     0.038969269   -0.020499192    0.07396435     0.063442649    0.16165257    -0.10355652    -0.0295543      9.0924724      9.0924724      9.0924724      0              0              0              0.29266899   
     12900   0.96065584     0.29664427    -2.2599548     -0.90966521    -0.022515107   -0.0077841275   0.04586212    -0.10562331    -0.080194065   -0.047875295   -0.038626636    9.051674       9.051674       9.051674       0              0              0              0.29664427   
     13000   1.0019154      0.30065172    -2.2993402     -0.66986879     0.036655647   -0.049818945    0.22215962    -0.062373737    0.11023092     0.050729677   -0.030433791    9.0112768      9.0112768      9.0112768      0              0              0              0.30065172   
     13100   0.99644815     0.30450761    -2.2592197     -0.61999479     0.042084626   -0.0062981607   0.064767883    0.067784156   -0.13463946    -0.029118375    0.029762526    8.9730794      8.9730794      8.9730794      0              0              0              0.30450761   
     13200   0.95667332     0.30833762    -2.1693498     -0.41661545     0.091071567    0.13546794     0.1044145      0.033332252    0.084278795   -0.066369494   -0.21288672     8.9357715      8.9357715      8.9357715      0              0              0              0.30833762   
     13300   1.0040143      0.31222852    -2.1953262     -1.319074      -0.17661888    -0.11692743    -0.19929881    -0.21363042    -0.053772203   -0.048743649   -0.033598352    8.8984979      8.8984979      8.8984979      0              0              0              0.31222852   
     13400   0.9972881      0.31636754    -2.1391835     -1.0510356     -0.11513036    -0.23320225    -0.068477883   -0.04371095     0.082088257   -0.15298258    -0.051615822    8.8595213      8.8595213      8.8595213      0              0              0              0.31636754   
     13500   1.0568696      0.32060201    -2.1929766     -0.34312865     0.079413145    0.1928048      0.15467424    -0.1092396      0.14271247     0.052941853   -0.068136339    8.8203431      8.8203431      8.8203431      0              0              0              0.32060201   
     13600   1.0934628      0.32448193    -2.2341576     -0.73266198    -0.038494671   -0.22181713     0.0072819282   0.099051194   -0.018570146    0.0067773908  -0.083092969    8.7850463      8.7850463      8.7850463      0              0              0              0.32448193   
     13700   1.1185263      0.3284191     -2.3018618     -0.22974825     0.12023513     0.025765877    0.24294963     0.091989873   -0.048197298   -0.04808885    -0.10233212     8.7497993      8.7497993      8.7497993      0              0              0              0.3284191    
     13800   0.96438673     0.33207289    -2.1401639     -0.351948       0.10531804     0.14624038     0.059263816    0.11044991    -0.046238724   -0.26021954     0.077333689    8.7175896      8.7175896      8.7175896      0              0              0              0.33207289   
     13900   0.93373931     0.33590147    -2.1660915     -1.3817342     -0.18604319    -0.14661686    -0.26532832    -0.14618438    -0.23911871     0.14182266    -0.048201748    8.6843421      8.6843421      8.6843421      0              0              0              0.33590147   
     14000   0.9349607      0.3403112     -2.2107672     -0.96597944    -0.046604405    0.14946191     0.009372434   -0.29864756    -0.091342334    0.14479062     0.10166022     8.6466686      8.6466686      8.6466686      0              0              0              0.3403112    
     14100   0.96464812     0.34475491    -2.2636116     -1.0631574     -0.074994572    0.032607595   -0.17469093    -0.082900385    0.11024904     0.094878004   -0.084443416    8.6093575      8.6093575      8.6093575      0              0              0              0.34475491   
     14200   0.98408209     0.34914088    -2.2836978     -0.79856133     0.0052034483  -0.12869484     0.038057545    0.10624764     0.03388317    -0.065963844    0.12883038     8.5731547      8.5731547      8.5731547      0              0              0              0.34914088   
     14300   1.0221603      0.35316695    -2.3048698     -0.32595723     0.14554922     0.060845449    0.033583238    0.34221898     0.17334322    -0.042372594    0.20940222     8.5404524      8.5404524      8.5404524      0              0              0              0.35316695   
     14400   1.037921       0.35703296    -2.2936189     -0.62328067     0.039351874    0.18897562    -0.10189521     0.030975215    0.070357906    0.15208248    -0.027494175    8.5095147      8.5095147      8.5095147      0              0              0              0.35703296   
     14500   1.0852816      0.36098074    -2.3256504     -0.56052523     0.047696185   -0.086480198    0.25972908    -0.03016033    -0.036440441   -0.15623414     0.10138902     8.4783801      8.4783801      8.4783801      0              0              0              0.36098074   
     14600   1.0899947      0.36468302    -2.2889619     -0.43577461     0.075048515    0.30155021    -0.025601303   -0.050803363    0.034008258    0.17008222     0.079379145    8.4495915      8.4495915      8.4495915      0              0              0              0.36468302   
     14700   1.1331916      0.36864776    -2.3411557     -0.78945374    -0.046780195   -0.16742477    -0.01660921     0.0436934      0.11428409     0.21423554    -0.036612506    8.419191       8.419191       8.419191       0              0              0              0.36864776   
     14800   1.0678835      0.37292121    -2.2900829     -0.86691021    -0.057851409    0.018298077   -0.040659658   -0.15119265    -0.17872334     0.049131555    0.085260426    8.3869077      8.3869077      8.3869077      0              0              0              0.37292121   
     14900   0.99493215     0.37727916    -2.2876688     -0.80970564    -0.0023916169  -0.1074888      0.082236384    0.018077571    0.11539508     0.12232611     0.027575933    8.3544902      8.3544902      8.3544902      0              0              0              0.37727916   
     15000   0.98711634     0.38187573    -2.3723138     -0.87858503     0.0071020538   0.17552541     0.016623305   -0.17084255     0.042240353    0.027692531    0.074198911    8.3208343      8.3208343      8.3208343      0              0              0              0.38187573   
     15100   1.0189182      0.38637195    -2.4797428     -1.7057769     -0.26230072    -0.27953882    -0.33549326    -0.1718701      0.0055813025  -0.073335681    0.059158606    8.2884317      8.2884317      8.2884317      0              0              0              0.38637195   
     15200   1.0057847      0.39076457    -2.5009432     -0.5448725      0.16161205     0.039050832    0.12834685     0.31743848     0.074294968   -0.11912297     0.29029384     8.2572576      8.2572576      8.2572576      0              0              0              0.39076457   
     15300   1.0127433      0.39486576    -2.5543241     -0.95325917     0.032144045   -0.10862064     0.19764623     0.0074065544   0.032401225   -0.15374271     0.047738824    8.2285706      8.2285706      8.2285706      0              0              0              0.39486576   
     15400   0.99109026     0.39914555    -2.5701873     -1.5009165     -0.14874756    -0.52243337     0.079400184   -0.0032095061   0.022719518    0.0072315873  -0.082712471    8.1990549      8.1990549      8.1990549      0              0              0              0.39914555   
     15500   0.98561747     0.40372596    -2.6034723     -1.1396533     -0.0026481003  -0.017386821    0.020769082   -0.011326561   -0.032522063   -0.0090046208  -0.090618492    8.1679299      8.1679299      8.1679299      0              0              0              0.40372596   
     15600   0.98527213     0.40837646    -2.6357068     -1.5145483     -0.12970043    -0.075565399   -0.23420926    -0.079326623    0.0030453804  -0.0066308965  -0.024242819    8.1368066      8.1368066      8.1368066      0              0              0              0.40837646   
     15700   1.0151841      0.41324036    -2.7185104     -1.707047      -0.18922609    -0.29068083    -0.048886974   -0.22811048    -0.045648242    0.090497484    0.18444031     8.1047567      8.1047567      8.1047567      0              0              0              0.41324036   
     15800   0.9944827      0.41795856    -2.7259135     -0.49357394     0.28423998     0.029284744    0.39741366     0.42602154     0.089278909    0.076786189   -0.051390034    8.0741439      8.0741439      8.0741439      0              0              0              0.41795856   
     15900   0.93608954     0.4219906     -2.6863554     -1.4977655     -0.079995492    0.078289832   -0.17044856    -0.14782775    -0.041424019   -0.0088269999   0.023389265    8.0483459      8.0483459      8.0483459      0              0              0              0.4219906    
     16000   0.91326888     0.42608188    -2.7019675     -0.8017309      0.20807622    -0.0084770829   0.420094       0.21261176    -0.085783368   -0.061804707   -0.10698311     8.0225027      8.0225027      8.0225027      0              0              0              0.42608188   
     16100   0.83988221     0.43033106    -2.6518201     -1.514025      -0.045274362    0.094359087   -0.10250768    -0.1276745      0.015843911   -0.069872763   -0.015096203    7.99601        7.99601        7.99601        0              0              0              0.43033106   
     16200   0.84833663     0.43506348    -2.6991484     -1.5645563     -0.052029769    0.059284789   -0.067525309   -0.14784879     0.034700967    0.27462216    -0.078840954    7.966912       7.966912       7.966912       0              0              0              0.43506348   
     16300   0.88630053     0.43994645    -2.7537757     -1.5885695     -0.06303125    -0.024559569   -0.07855451    -0.085979672   -0.19002264     0.010099588   -0.015881351    7.9373273      7.9373273      7.9373273      0              0              0              0.43994645   
     16400   0.98453639     0.44495687    -2.8335305     -1.8723914     -0.20560299    -0.28269591    -0.04579564    -0.28831742     0.028768061    0.042674024    0.040089913    7.9074221      7.9074221      7.9074221      0              0              0              0.44495687   
     16500   0.99695737     0.44997948    -2.7605471     -0.81376557     0.1876916      0.14630414     0.26839563     0.14837504     0.14124896     0.018639012   -0.16524554     7.8778914      7.8778914      7.8778914      0              0              0              0.44997948   
     16600   1.0881611      0.45442403    -2.8382549     -1.3609025     -0.060615249    0.19502779    -0.15271227    -0.22416126    -0.29951048     0.38676767    -0.18338183     7.8521237      7.8521237      7.8521237      0              0              0              0.45442403   
     16700   1.0850731      0.45866901    -2.8207679     -0.37157035     0.34597234     0.11794367     0.43576661     0.48420674    -0.1071144     -0.0098560257  -0.19915089     7.8278247      7.8278247      7.8278247      0              0              0              0.45866901   
     16800   1.0545551      0.46229212    -2.7999588     -0.2890733      0.39377288     0.61250808     0.32177926     0.24703131    -0.040465399   -0.0031198095   0.051128014    7.8073215      7.8073215      7.8073215      0              0              0              0.46229212   
     16900   1.049507       0.46572153    -2.8412879     -1.3540332     -0.033504228   -0.096887023    0.094869407   -0.098495068    0.017066235   -0.14094554     0.084514152    7.7881108      7.7881108      7.7881108      0              0              0              0.46572153   
     17000   0.96925148     0.46990336    -2.7909583     -1.5646094     -0.094091263    0.04870972    -0.22138421    -0.1095993     -0.077093125    0.23942297    -0.15096856     7.7649389      7.7649389      7.7649389      0              0              0              0.46990336   
     17100   0.98407938     0.4744033     -2.8551639     -1.1789068      0.089497717    0.1081804     -0.073053046    0.2333658      0.052367948   -0.12289572    -0.16481199     7.7403095      7.7403095      7.7403095      0              0              0              0.4744033    
     17200   0.99929675     0.47895767    -2.9099756     -1.8594845     -0.19200077    -0.33669805    -0.03367297    -0.2056313     -0.13076936     0.22570217     0.096102518    7.7156973      7.7156973      7.7156973      0              0              0              0.47895767   
     17300   0.95497277     0.48379105    -2.8567437     -1.1214226      0.13635177    -0.061196778    0.58870455    -0.11845248    -0.3889727     -0.012177641    0.00099954854  7.6899164      7.6899164      7.6899164      0              0              0              0.48379105   
     17400   0.98161017     0.48831431    -2.8977524     -1.2373811      0.08670603    -0.046564924    0.37177076    -0.06508775    -0.10889999    -0.25948759    -0.060162696    7.6660988      7.6660988      7.6660988      0              0              0              0.48831431   
     17500   0.949366       0.49309709    -2.850384      -2.3558216     -0.41346926    -0.34631221    -0.46628232    -0.42781324     0.058711942    0.015138897    0.23111577     7.6412325      7.6412325      7.6412325      0              0              0              0.49309709   
     17600   0.91309126     0.49897703    -2.7933618     -1.8425543     -0.18688107     0.014981187   -0.27483641    -0.30078798     0.27142998     0.068322877    0.023432252    7.6110991      7.6110991      7.6110991      0              0              0              0.49897703   
     17700   0.99675795     0.50494549    -2.8978987     -2.0589579     -0.2977895     -0.49126218    -0.24948061    -0.15262569    -0.17615238     0.0053919003   0.1681218      7.5809924      7.5809924      7.5809924      0              0              0              0.50494549   
     17800   0.99360739     0.51070359    -2.8628782     -1.6796348     -0.13915078    -0.003833626   -0.11932444    -0.29429428     0.11494192    -0.25261951    -0.06038602     7.5523931      7.5523931      7.5523931      0              0              0              0.51070359   
     17900   1.0106972      0.51615069    -2.8674947     -1.772516      -0.19401962    -0.071730143   -0.31599352    -0.1943352     -0.10933024     0.056612251   -0.051758298    7.5257315      7.5257315      7.5257315      0              0              0              0.51615069   
     18000   0.99790775     0.52153993    -2.8409045     -1.6360874     -0.13491776    -0.32650807    -0.17934764     0.10110242    -0.10382228     0.16693845    -0.098939136    7.4997198      7.4997198      7.4997198      0              0              0              0.52153993   
     18100   1.0241478      0.52683868    -2.8766326     -2.0071234     -0.31563928    -0.45913616     0.17439279    -0.66217447    -0.27562118     0.13589414     0.1865656      7.4744919      7.4744919      7.4744919      0              0              0              0.52683868   
     18200   0.98351572     0.53241628    -2.8207093     -1.4584029     -0.051107523    0.17622522    -0.38450079     0.054952997   -0.04113071    -0.040052401    0.14044177     7.4482993      7.4482993      7.4482993      0              0              0              0.53241628   
     18300   1.0000973      0.53784567    -2.8558777     -1.909764      -0.26722694     0.13569239    -0.54468706    -0.39268616     0.016989291    0.063035743    0.034152712    7.4231517      7.4231517      7.4231517      0              0              0              0.53784567   
     18400   1.0686952      0.54311628    -2.9766886     -1.3644447      0.0085004536   0.1875601      0.088863073   -0.25092181     0.28233528     0.003946188    0.083584865    7.3990612      7.3990612      7.3990612      0              0              0              0.54311628   
     18500   1.0520452      0.54811241    -2.9929724     -1.4706115     -0.023826259    0.062534785   -0.083182439   -0.050831123    0.014003183    0.29775386     0.17503143     7.3765114      7.3765114      7.3765114      0              0              0              0.54811241   
     18600   1.030158       0.55323185    -3.0248376     -1.4870318      0.00014833656 -0.14190007    -0.09382735     0.23617243     0.1313274     -0.10603145    -0.38328225     7.3536875      7.3536875      7.3536875      0              0              0              0.55323185   
     18700   0.99233001     0.55853558    -3.0530471     -1.6414315     -0.035257263   -0.05269842     0.36466773    -0.4177411      0.090982288    0.20918043    -0.092413828    7.3303371      7.3303371      7.3303371      0              0              0              0.55853558   
     18800   1.0116368      0.56384061    -3.142706      -1.6756128     -0.021925539    0.21426021    -0.14242571    -0.13761112    -0.018433752    0.28950456    -0.27410434     7.3072748      7.3072748      7.3072748      0              0              0              0.56384061   
     18900   0.99464702     0.56897537    -3.1487192     -1.5184597      0.075388607   -0.034293805    0.29624351    -0.035783884   -0.020692365   -0.084352663   -0.077922051    7.2852267      7.2852267      7.2852267      0              0              0              0.56897537   
     19000   1.0182733      0.57403355    -3.2018535     -2.0831239     -0.20928391    -0.15531574    -0.56872088     0.096184888    0.17812991     0.15005886     0.075581844    7.2637653      7.2637653      7.2637653      0              0              0              0.57403355   
     19100   1.0048075      0.57910776    -3.1868207     -2.3475938     -0.34770064    -0.17546405    -0.4785697     -0.38906817     0.24624414     0.12926361    -0.081041002    7.2424877      7.2424877      7.2424877      0              0              0              0.57910776   
     19200   0.9682669      0.58461038    -3.1375845     -1.9842837     -0.15510119    -0.28125106    -0.009392553   -0.17465996     0.20189781     0.030581788    0.074432686    7.2196928      7.2196928      7.2196928      0              0              0              0.58461038   
     19300   0.98931618     0.59043293    -3.1749773     -1.7077556     -0.0050093766  -0.010114145   -0.028954783    0.024040799   -0.000592721    0.14368971     0.11194122     7.1958821      7.1958821      7.1958821      0              0              0              0.59043293   
     19400   1.0178251      0.59611642    -3.2280892     -2.2128508     -0.27305685    -0.32561769    -0.14293058    -0.35062227    -0.058977943    0.30221676     0.044278261    7.17294        7.17294        7.17294        0              0              0              0.59611642   
     19500   1.013679       0.60144182    -3.2412984     -1.6276577      0.055072843    0.11773657    -0.0038846159   0.051366577   -0.29568838     0.1412335     -0.011435072    7.1517066      7.1517066      7.1517066      0              0              0              0.60144182   
     19600   0.9801089      0.60678224    -3.2349785     -1.9245168     -0.084039778    0.31779047    -0.18258077    -0.38732904    -0.19787839    -0.13489733    -0.038033142    7.1306635      7.1306635      7.1306635      0              0              0              0.60678224   
     19700   1.0286048      0.61223804    -3.3755851     -1.6024187      0.13245145     0.17187733     0.31317673    -0.087699718   -0.34266005    -0.19841108    -0.12565254     7.1094192      7.1094192      7.1094192      0              0              0              0.61223804   
     19800   0.93414444     0.61679536    -3.3215364     -2.1095126     -0.10215633    -0.18869291    -0.14709629     0.029320202   -0.11097633    -0.017633139    0.17152254     7.0918661      7.0918661      7.0918661      0              0              0              0.61679536   
     19900   0.91149545     0.62162338    -3.3517395     -1.7155112      0.15587002     0.7211091     -0.04311244    -0.21038659    -0.19527688    -0.19694108    -0.18141095     7.073458       7.073458       7.073458       0              0              0              0.62162338   
     20000   0.92001979     0.62697996    -3.4006781     -2.5133207     -0.27688125    -0.39650753    -0.48319774     0.049061525   -0.096072054   -0.13162966     0.28126347     7.0532564      7.0532564      7.0532564      0              0              0              0.62697996   
     20100   0.90405044     0.63277263    -3.3694027     -2.2612496     -0.13871651    -0.0052168559  -0.26057535    -0.15035731     0.18585033     0.18644916     0.32528646     7.0316676      7.0316676      7.0316676      0              0              0              0.63277263   
     20200   0.97070516     0.63846037    -3.4274797     -2.2267922     -0.14399597     0.094177911   -0.21695045    -0.30921537     0.13032167     0.16461021     0.072065319    7.0107247      7.0107247      7.0107247      0              0              0              0.63846037   
     20300   1.013126       0.64496339    -3.4367191     -2.1173444     -0.11299518    -0.1981516     -0.26696727     0.12613332     0.31227447     0.056715568   -0.23722594     6.9870825      6.9870825      6.9870825      0              0              0              0.64496339   
     20400   1.0294565      0.65117024    -3.3972319     -2.5231986     -0.39214095    -0.56733534    -0.61277603     0.0036885292  -0.17255389    -0.065118857    0.0036325871   6.9648117      6.9648117      6.9648117      0              0              0              0.65117024   
     20500   1.0328802      0.65712898    -3.3481809     -1.4614115      0.20621646     0.56396099     0.081266813   -0.026578419   -0.24957158     0.16620827     0.082772208    6.9436958      6.9436958      6.9436958      0              0              0              0.65712898   
     20600   1.0646781      0.66223923    -3.3637752     -1.8746924     -0.060173042   -0.041282212   -0.0059309115  -0.133306      -0.15718079    -0.0028071472   0.16512897     6.9257891      6.9257891      6.9257891      0              0              0              0.66223923   
     20700   1.0405492      0.66703462    -3.3270286     -0.89651954     0.5321053      0.21814466     0.68986178     0.68830946     0.59016921     0.50269546     0.59664156     6.9091523      6.9091523      6.9091523      0              0              0              0.66703462   
     20800   1.1027687      0.67095247    -3.4440406     -1.9087566     -0.067460142    0.4290683     -0.3877522     -0.24369652    -0.16351397    -0.41214823     0.096681326    6.895678       6.895678       6.895678       0              0              0              0.67095247   
     20900   1.0729607      0.67577066    -3.4410489     -1.6101592      0.14098775     0.43940447    -0.30274802     0.2863068     -0.012259053   -0.24843339     0.19319498     6.8792504      6.8792504      6.8792504      0              0              0              0.67577066   
     21000   1.04354        0.68047556    -3.4461999     -2.0176914     -0.07978575    -0.4149051     -0.095994749    0.2715426      0.042557173   -0.53507359    -0.13606352     6.863359       6.863359       6.863359       0              0              0              0.68047556   
     21100   1.0727039      0.68539318    -3.5598127     -2.1389532     -0.11224944    -0.042880761    0.22536077    -0.51922832    -0.23387277     0.33366643    -0.23312293     6.846905       6.846905       6.846905       0              0              0              0.68539318   
     21200   0.99667743     0.69064151    -3.5300495     -2.1626248     -0.075415731   -0.52590493     0.48097049    -0.18131275    -0.40550387     0.14224146     0.048247068    6.8295172      6.8295172      6.8295172      0              0              0              0.69064151   
     21300   1.0325262      0.69661684    -3.6633004     -2.6193861     -0.31482712    -0.24765763    -0.34092556    -0.35589816    -0.052008891    0.30369094    -0.11747724     6.809934       6.809934       6.809934       0              0              0              0.69661684   
     21400   1.0156949      0.70282872    -3.6952596     -2.8713355     -0.44214351    -0.35958398    -0.27937532    -0.68747124     0.25259217     0.012537012   -0.032439576    6.7898116      6.7898116      6.7898116      0              0              0              0.70282872   
     21500   0.95624119     0.70894196    -3.6476167     -1.7550921      0.29990475     0.0588102      0.12281134     0.7180927      0.072259807   -0.080941448    0.17849652     6.770239       6.770239       6.770239       0              0              0              0.70894196   
     21600   0.95836691     0.71487966    -3.6891852     -2.5606202     -0.19613541    -0.11864722    -0.58924585     0.11948686    -0.088128155    0.21094218    -0.39006297     6.7514426      6.7514426      6.7514426      0              0              0              0.71487966   
     21700   0.97110351     0.72108381    -3.734251      -2.7539888     -0.30751592    -0.036961923   -0.69737208    -0.18821375     0.34262777     0.16587062    -0.048835988    6.7320239      6.7320239      6.7320239      0              0              0              0.72108381   
     21800   1.0024897      0.72737215    -3.7938174     -2.0940404      0.1346042      0.11709397     0.1951052      0.091613427    0.11609944     0.055329825   -0.23247056     6.7125676      6.7125676      6.7125676      0              0              0              0.72737215   
     21900   1.0200446      0.73284984    -3.8279294     -2.2921446      0.0089062201  -0.049749124   -0.071306754    0.14777454    -0.28546237     0.081932825    0.27095447     6.6958013      6.6958013      6.6958013      0              0              0              0.73284984   
     22000   1.0300437      0.73854106    -3.8643407     -2.3147404      0.0082314079  -0.027664915    0.24115552    -0.18879639    -0.16082036     0.55475063    -0.045604204    6.6785577      6.6785577      6.6785577      0              0              0              0.73854106   
     22100   1.0658286      0.74370625    -3.9524598     -2.2179726      0.097180815    0.089952528    0.31877386    -0.11718395     0.22876502     0.13961253     0.45600124     6.6630604      6.6630604      6.6630604      0              0              0              0.74370625   
     22200   0.9788751      0.74841343    -3.892885      -2.423069       0.006017891   -0.26309884     0.57374703    -0.29259452     0.39705867     0.25064458    -0.15407522     6.6490618      6.6490618      6.6490618      0              0              0              0.74841343   
     22300   0.97707009     0.75349137    -3.9796865     -2.0028821      0.35518713     0.071146531    0.72922016     0.26519471    -0.029942993   -0.11410168     0.018841424    6.6340916      6.6340916      6.6340916      0              0              0              0.75349137   
     22400   0.97992939     0.75803105    -4.0487078     -2.6839449     -0.067383226    0.065324835    0.087736737   -0.35521125    -0.17876839    -0.34268225    -0.09435641     6.6208217      6.6208217      6.6208217      0              0              0              0.75803105   
     22500   1.034431       0.76316929    -4.1622051     -3.22646       -0.42192383     0.10859469    -0.68622744    -0.68813874     0.24784698    -0.31600208    -0.42911171     6.6059294      6.6059294      6.6059294      0              0              0              0.76316929   
     22600   0.95258894     0.76896683    -4.0559007     -2.1290355      0.35311387     0.27561627     0.40821682     0.37550851    -0.14035867    -0.22434385    -0.08220499     6.589286       6.589286       6.589286       0              0              0              0.76896683   
     22700   0.968413       0.77313296    -4.0639201     -1.9735919      0.45331724     0.46587204     0.36153911     0.53254056    -0.15867244     0.12073692     0.042691908    6.5774289      6.5774289      6.5774289      0              0              0              0.77313296   
     22800   1.0460476      0.77657632    -4.1558135     -2.4672167      0.089921028   -0.28342172     0.35309383     0.20009097    -0.012716166    0.038124801   -0.12279462     6.567693       6.567693       6.567693       0              0              0              0.77657632   
     22900   1.0255617      0.78042866    -4.1031517     -2.2145875      0.25393255    -0.24394595     0.65021394     0.35552965     0.07636768    -0.27621147    -0.12493282     6.5568687      6.5568687      6.5568687      0              0              0              0.78042866   
     23000   0.99783426     0.78420109    -4.0303134     -1.6209882      0.65591833     0.54757762     0.52301756     0.89715981    -0.12797203     0.30231993     0.14366495     6.5463378      6.5463378      6.5463378      0              0              0              0.78420109   
     23100   1.1033148      0.78742795    -4.1400614     -2.0988018      0.28244483    -0.26357199     0.25894384     0.85196266    -0.49193789     0.73691631     0.07288471     6.5373833      6.5373833      6.5373833      0              0              0              0.78742795   
     23200   1.1114478      0.79066502    -4.1349378     -1.6150288      0.61892771     0.73673025     0.63418326     0.48586962    -0.021838913   -0.39661583     0.17473862     6.5284495      6.5284495      6.5284495      0              0              0              0.79066502   
     23300   1.0872776      0.7935138     -4.1260155     -1.6100456      0.64433902     0.57898947     0.60519651     0.74883108     0.27236717    -0.34468629    -0.17506052     6.5206276      6.5206276      6.5206276      0              0              0              0.7935138    
     23400   1.0165581      0.79595285    -4.1067792     -1.864517       0.52464091     0.65804937     0.29055263     0.62532074     0.085628319    0.48384538    -0.12825065     6.5139604      6.5139604      6.5139604      0              0              0              0.79595285   
     23500   1.0309202      0.7989545     -4.2305964     -2.4334661      0.18774122     0.011514143    0.3942818      0.15742772    -0.30094138     0.37260243    -0.095838616    6.5057925      6.5057925      6.5057925      0              0              0              0.7989545    
     23600   0.97425201     0.80253693    -4.2142329     -1.9700904      0.57641951     0.37615748     0.76806301     0.58503804    -0.048680447    0.26800456     0.23101948     6.4960978      6.4960978      6.4960978      0              0              0              0.80253693   
     23700   1.0080297      0.80574354    -4.2950031     -2.4171914      0.27346004     0.86306513    -0.27029845     0.22761343     0.21103342    -0.40122914    -0.07510027     6.4874688      6.4874688      6.4874688      0              0              0              0.80574354   
     23800   0.94448414     0.80889496    -4.228809      -1.6745527      0.84170208     1.2620028      0.49136524     0.77173823    -0.053250816    0.062228423    0.085764953    6.4790329      6.4790329      6.4790329      0              0              0              0.80889496   
     23900   1.0287146      0.81096065    -4.3575887     -2.5392117      0.20865321     0.025811218    0.39833409     0.20181433    -0.17293297    -0.28186224    -0.2745695      6.4735271      6.4735271      6.4735271      0              0              0              0.81096065   
     24000   0.94772785     0.81336988    -4.229655      -1.9050157      0.67299365     0.96213341     0.011444026    1.0454035     -0.19017432     0.27829512    -0.072289889    6.4671291      6.4671291      6.4671291      0              0              0              0.81336988   
     24100   0.99031725     0.81594448    -4.2714514     -1.8429741      0.70499738     1.1000745      0.49463855     0.52027909     0.042322001    0.33639956    -0.24743604     6.4603199      6.4603199      6.4603199      0              0              0              0.81594448   
     24200   1.0270938      0.81824735    -4.2936286     -2.1673914      0.44133271     0.22670785     0.35290615     0.74438413     0.30047505    -0.058362152    0.30271338     6.4542536      6.4542536      6.4542536      0              0              0              0.81824735   
     24300   1.0232854      0.82040574    -4.2363055     -1.5283587      0.88058866     1.606271       0.35992587     0.67556908     0.26040992     0.11458701    -0.21331964     6.4485885      6.4485885      6.4485885      0              0              0              0.82040574   
     24400   1.1094603      0.82285426    -4.3137969     -1.7039594      0.71361515     1.381592       0.25972012     0.49953338    -0.037148051    0.02093324    -0.24790637     6.4421859      6.4421859      6.4421859      0              0              0              0.82285426   
     24500   1.0025516      0.82469443    -4.1429854     -1.0663126      1.1848345      0.87120572     1.7287421      0.95455569    -0.51898376    -0.41357219     0.21592382     6.4373908      6.4373908      6.4373908      0              0              0              0.82469443   
     24600   1.1253378      0.82531491    -4.3544079     -0.78081773     1.4210599      1.7022913      1.0703608      1.4905275     -0.19072899    -0.21884528     0.1855831      6.4357771      6.4357771      6.4357771      0              0              0              0.82531491   
     24700   1.0627856      0.82491226    -4.3573631     -1.5782711      0.89456827     0.72762646     0.91262288     1.0434555      0.031965736   -0.22783314    -0.16365637     6.4368241      6.4368241      6.4368241      0              0              0              0.82491226   
     24800   0.9869669      0.82431276    -4.340881      -1.4207178      1.0844322      0.54400352     0.8913857      1.8179075     -0.019349226    0.39104297     0.062811001    6.4383842      6.4383842      6.4383842      0              0              0              0.82431276   
     24900   0.94200928     0.82367772    -4.3264722     -1.7746185      0.8580512      0.73446312     0.75336188     1.0863286     -0.61985631     0.041242325    0.043448525    6.4400384      6.4400384      6.4400384      0              0              0              0.82367772   
     25000   0.93953848     0.82420764    -4.3332205     -1.8033327      0.84490776     1.112675       0.52568799     0.89636032    -0.54167096    -0.25825875     0.14065508     6.4386579      6.4386579      6.4386579      0              0              0              0.82420764   
     25100   1.0423168      0.82582615    -4.4810073     -2.4563879      0.35207333     0.57399868     0.37132159     0.11089973    -0.073892692    0.030382722   -0.099047939    6.4344488      6.4344488      6.4344488      0              0              0              0.82582615   
     25200   0.99488399     0.82857637    -4.4090459     -2.21916        0.53105836     0.78806018     0.52534531     0.27976958    -0.21771582    -0.1914322     -0.0082959463   6.4273218      6.4273218      6.4273218      0              0              0              0.82857637   
     25300   0.99478065     0.83132482    -4.3987571     -2.1010958      0.61438775     0.99754003    -0.11438764     0.96001087    -0.026506874    0.063958669    0.011610984    6.4202309      6.4202309      6.4202309      0              0              0              0.83132482   
     25400   1.0497036      0.83363543    -4.4672858     -2.076307       0.62469309     0.54905308     0.24670386     1.0783223      0.062673716    0.003305621   -0.0090769225   6.4142936      6.4142936      6.4142936      0              0              0              0.83363543   
     25500   0.9423807      0.83594732    -4.2970552     -1.5895108      0.98872901     1.3589638      0.31556518     1.2916581      0.10501433    -0.015870022   -0.12071604     6.4083751      6.4083751      6.4083751      0              0              0              0.83594732   
     25600   1.0349644      0.83719443    -4.4168569     -1.6636642      0.9197786      0.89863157     0.70606193     1.1546423      0.23968564    -0.38610895     0.052669262    6.4051915      6.4051915      6.4051915      0              0              0              0.83719443   
     25700   1.0328508      0.83772527    -4.3751798     -1.1833186      1.2568404      1.0283679      1.9029424      0.83921077     0.39030131     0.29823629    -0.42540695     6.4038383      6.4038383      6.4038383      0              0              0              0.83772527   
     25800   1.0842391      0.8377039     -4.4255911     -1.5682029      0.94368204     0.87808108     0.3211287      1.6318363      0.43252525    -0.11867594     0.60052668     6.4038927      6.4038927      6.4038927      0              0              0              0.8377039    
     25900   1.0371616      0.837283      -4.3464127     -1.1648931      1.2434078      1.2791644      1.1809517      1.2701074      0.40209769     0.28845589     0.18047136     6.4049656      6.4049656      6.4049656      0              0              0              0.837283     
     26000   1.0586372      0.83627472    -4.3800079     -1.3445028      1.1065352      0.62572481     1.378244       1.3156367      0.07482261     0.028494623   -0.5451606      6.4075387      6.4075387      6.4075387      0              0              0              0.83627472   
     26100   1.0443718      0.83622459    -4.3946719     -1.7518686      0.824121       1.0236327      0.56761173     0.88111856    -0.212143      -0.65991331     0.042493771    6.4076667      6.4076667      6.4076667      0              0              0              0.83622459   
     26200   0.98948017     0.83699076    -4.3799878     -1.9163181      0.75091051     0.7448268      1.0098129      0.49809185    -0.31409751     0.093373147   -0.29723879     6.405711       6.405711       6.405711       0              0              0              0.83699076   
     26300   1.0358521      0.83765488    -4.5223769     -2.0671994      0.69233566     1.2560049      0.70402863     0.11697342    -0.11253873     0.011302878   -0.089501779    6.4040176      6.4040176      6.4040176      0              0              0              0.83765488   
     26400   0.93524369     0.83886645    -4.4340333     -1.6488637      1.0595024      1.9615886      0.28394131     0.9329771      0.28137986     0.30678528    -0.19754331     6.400933       6.400933       6.400933       0              0              0              0.83886645   
     26500   0.93084484     0.84018361    -4.4527619     -1.9663033      0.83802408     0.72659081     0.9770577      0.81042374     0.06640838     0.42021558     0.046890036    6.3975864      6.3975864      6.3975864      0              0              0              0.84018361   
     26600   0.93419469     0.84125984    -4.4468331     -2.2628524      0.6039443      0.37380534     1.1574869      0.28054069     0.12915027    -0.074067518    0.29750171     6.3948571      6.3948571      6.3948571      0              0              0              0.84125984   
     26700   0.97168985     0.8428455     -4.4678438     -2.0238719      0.761415       0.9279866      0.82944674     0.52681166     0.017455502    0.020022032    0.57722318     6.3908443      6.3908443      6.3908443      0              0              0              0.8428455    
     26800   1.0232698      0.84442126    -4.486206      -2.0741663      0.67922911     0.50083958     1.4266861      0.11016165    -0.24510137     0.40053404    -0.0096383729   6.3868665      6.3868665      6.3868665      0              0              0              0.84442126   
     26900   1.0313537      0.84589139    -4.4440767     -1.6557907      0.960464       0.67188643     1.607445       0.60206059    -0.68113507     0.46448093     0.030466605    6.3831643      6.3831643      6.3831643      0              0              0              0.84589139   
     27000   1.0373306      0.84666114    -4.4159811     -1.5874568      0.98544312     1.1251246      0.75044877     1.080756       0.58384461    -0.12059749     0.19985106     6.3812293      6.3812293      6.3812293      0              0              0              0.84666114   
     27100   1.125268       0.84721988    -4.530673      -1.7684776      0.83392077     0.083883548    1.0989546      1.3189241      0.22459891     0.044000489    0.12257303     6.3798262      6.3798262      6.3798262      0              0              0              0.84721988   
     27200   1.0541729      0.84763443    -4.4580982     -1.3945206      1.1483325      1.1872583      0.8672433      1.3904958     -0.032091558   -0.10348816     0.15552125     6.378786       6.378786       6.378786       0              0              0              0.84763443   
     27300   1.0015064      0.84709326    -4.4231007     -2.0936446      0.64279578     0.84548062     0.84348152     0.23942521     0.0067748754   0.26797042     0.26775948     6.3801441      6.3801441      6.3801441      0              0              0              0.84709326   
     27400   0.95478293     0.84717471    -4.422272      -1.8780904      0.86193715     1.5884164      0.62172192     0.37567312    -0.03592246    -0.83007256    -0.15953196     6.3799396      6.3799396      6.3799396      0              0              0              0.84717471   
     27500   0.96922574     0.84751745    -4.5946056     -2.4200073      0.56092475     0.56870255     0.22624465     0.88782705     0.20690963     0.67471821    -0.27531943     6.3790794      6.3790794      6.3790794      0              0              0              0.84751745   
     27600   0.87988404     0.84918674    -4.5845578     -2.617383       0.50483988     0.63395275     0.54469465     0.33587223     0.46114677     0.12302359     0.15704799     6.3748968      6.3748968      6.3748968      0              0              0              0.84918674   
[...]
    136000   0.096184839    0.2686643     -4.8038941     -5.1061266     -0.10887947     0.11712868    -0.075191796   -0.36857531    -0.048652064   -0.022735394   -0.031166497    23.164943      5.9455323      5.9455323      0              0              0              0.2686643    
    137000   0.10005824     0.26599104    -4.8307796     -5.230643      -0.13280215     0.091913698   -0.16527382    -0.32504633     0.012216997   -0.034249401   -0.052044186    23.397755      5.9455323      5.9455323      0              0              0              0.26599104   
    138000   0.1043083      0.26334439    -4.8501104     -4.9702036     -0.066021235    0.10467224    -0.1000568     -0.20267915     0.02545075    -0.031539468    0.020651305    23.632906      5.9455323      5.9455323      0              0              0              0.26334439   
    139000   0.10059304     0.26072407    -4.8679685     -4.9611088     -0.057661592    0.10521752    -0.11992119    -0.1582811      0.011096108    0.015836191    0.025011465    23.870421      5.9455323      5.9455323      0              0              0              0.26072407   
    140000   0.096942903    0.25812982    -4.9093203     -5.0564856     -0.068487148    0.073060097   -0.16953073    -0.10899081    -0.01982522    -0.0019927527   0.01785247     24.110322      5.9455323      5.9455323      0              0              0              0.25812982   
    141000   0.10359618     0.25556138    -4.8946887     -5.2628864     -0.12146484     0.047794405   -0.12760852    -0.28458042    -0.036540251   -0.016185754   -0.035538274    24.352635      5.9455323      5.9455323      0              0              0              0.25556138   
    142000   0.09993084     0.25301851    -4.9138655     -5.5305959     -0.17616462    -0.11076353    -0.15797335    -0.25975696     0.021233899    0.027627909    0.089357245    24.597383      5.9455323      5.9455323      0              0              0              0.25301851   
    143000   0.10587133     0.25050093    -4.8799285     -5.3331691     -0.13919962     0.0064076036  -0.12519119    -0.29881529     0.037254628    0.002728525   -0.019655867    24.844591      5.9455323      5.9455323      0              0              0              0.25050093   
    144000   0.097714517    0.2480084     -4.9335974     -5.0799856     -0.065886157    0.030763561   -0.082010189   -0.14641184    -0.04487875     0.023138921    0.056455655    25.094283      5.9455323      5.9455323      0              0              0              0.2480084    
    145000   0.10628322     0.24554068    -4.9178229     -5.2024015     -0.098931977   -0.024492023   -0.094780379   -0.17752353     0.11287263     0.019868523   -0.0037015838   25.346485      5.9455323      5.9455323      0              0              0              0.24554068   
    146000   0.10498694     0.24309751    -4.9407978     -5.3107556     -0.11638864    -0.064415686   -0.074268119   -0.21048211     0.046369561   -0.028967925    0.010611254    25.601221      5.9455323      5.9455323      0              0              0              0.24309751   
    147000   0.090657743    0.24067865    -4.9517911     -5.2091811     -0.085921548    0.045252008   -0.067701319   -0.23531533     0.019642334   -0.024044351   -0.043513927    25.858518      5.9455323      5.9455323      0              0              0              0.24067865   
    148000   0.098779993    0.23828386    -4.9489102     -5.0675137     -0.057628442   -0.044901964   -0.0042550522  -0.12372831     0.025435124    0.026832188    0.0037794526   26.1184        5.9455323      5.9455323      0              0              0              0.23828386   
    149000   0.094341436    0.23591289    -4.9849934     -4.8880889     -0.0094150839   0.08816182     0.04954779    -0.16595486    -0.043164882    0.04239803     0.010027103    26.380895      5.9455323      5.9455323      0              0              0              0.23591289   
    150000   0.10388642     0.23356552    -4.9714274     -5.3019897     -0.10311127    -0.060229723   -0.16009856    -0.089005526    5.3568436e-05  0.033799455   -0.035003611    26.646027      5.9455323      5.9455323      0              0              0              0.23356552   
    151000   0.097714833    0.2312415     -4.9979323     -4.7252682      0.026661032    0.098781647    0.074187809   -0.092986358   -0.045684965    0.086602988   -0.0015635028   26.913824      5.9455323      5.9455323      0              0              0              0.2312415    
    152000   0.10121934     0.22894061    -4.9850367     -5.3415077     -0.10563338    -0.077941192   -0.065375686   -0.17358327     0.0048574518   0.022860077    0.012933026    27.184313      5.9455323      5.9455323      0              0              0              0.22894061   
    153000   0.10053869     0.22666261    -4.9959445     -4.8856375     -0.008190133   -0.020725608   -0.029326812    0.025482021   -0.006940231   -0.013142393   -0.020943424    27.457519      5.9455323      5.9455323      0              0              0              0.22666261   
    154000   0.095018669    0.22440728    -4.9907241     -4.8487955      2.3099171e-05  0.082293754   -0.055728791   -0.026495665   -0.042863922   -0.0038777015   0.0032062977   27.733472      5.9455323      5.9455323      0              0              0              0.22440728   
    155000   0.10168512     0.22217439    -4.9862121     -4.827154       0.0014730344  -0.042642491   -0.016834016    0.06389561     0.01544265    -0.032002612   -0.019551371    28.012198      5.9455323      5.9455323      0              0              0              0.22217439   
    156000   0.093290964    0.21996372    -4.9993519     -5.2013561     -0.068236929   -0.033341183   -0.10388959    -0.067480012   -0.040270609   -0.0035981419  -0.015445202    28.293725      5.9455323      5.9455323      0              0              0              0.21996372   
    157000   0.098695072    0.21777505    -5.0032723     -4.8569287     -0.00018982265 -0.0005054301   0.018157157   -0.018221195    0.017552398    0.015084523   -0.027323526    28.578082      5.9455323      5.9455323      0              0              0              0.21777505   
    158000   0.10472022     0.21560815    -4.9869009     -5.1491337     -0.062433796    0.013236106   -0.060653703   -0.13988379    -0.036490961   -0.055849136    0.0064189391   28.865297      5.9455323      5.9455323      0              0              0              0.21560815   
    159000   0.10154966     0.21346281    -5.0005284     -5.0937154     -0.047495453   -0.041992693   -0.037939841   -0.062553826    0.035884572    0.046467172   -0.015266219    29.155398      5.9455323      5.9455323      0              0              0              0.21346281   
    160000   0.099331152    0.21133882    -4.9962702     -5.0016071     -0.029508405   -0.010083576   -0.060499288   -0.017942352   -0.024821055    0.026576093   -0.020793376    29.448414      5.9455323      5.9455323      0              0              0              0.21133882   
    161000   0.11238303     0.20923596    -5.0006422     -4.7092036      0.023530865    0.055023521    0.02038311    -0.0048140356  -0.0066505682  -0.072068256   -0.013274827    29.744376      5.9455323      5.9455323      0              0              0              0.20923596   
    162000   0.099391437    0.20715403    -5.0041311     -5.1386905     -0.053276462   -0.06579948    -0.0055182982  -0.088511608    0.017103197   -0.0093232017   0.031614915    30.043312      5.9455323      5.9455323      0              0              0              0.20715403   
    163000   0.096900207    0.20509281    -5.0120652     -4.757227       0.020549316    0.0042418711   0.071059496   -0.01365342    -0.033577335    0.024799002    0.018694054    30.345252      5.9455323      5.9455323      0              0              0              0.20509281   
    164000   0.10457898     0.20305211    -4.9952841     -4.5936916      0.045319089    0.076579959    0.028953806    0.030423501    0.054697204   -0.0060655633  -0.042431194    30.650227      5.9455323      5.9455323      0              0              0              0.20305211   
    165000   0.10221475     0.20103171    -4.9899142     -5.0565519     -0.040058905   -0.014599182   -0.034047601   -0.07152993     0.037357986   -0.035143701    0.0043995298   30.958267      5.9455323      5.9455323      0              0              0              0.20103171   
    166000   0.093798667    0.19903141    -4.9983483     -5.1020788     -0.044099039   -0.066501212   -0.016929464   -0.048866441   -0.036758692    0.046798507   -0.0055506616   31.269403      5.9455323      5.9455323      0              0              0              0.19903141   
    167000   0.1034236      0.19705101    -4.9888156     -4.7933237      0.0073683092   0.014744433    0.011619704   -0.0042592092  -0.025268272    0.034693245   -0.034321862    31.583665      5.9455323      5.9455323      0              0              0              0.19705101   
    168000   0.10528005     0.19509032    -4.9964663     -5.1826916     -0.060895799   -0.086572312   -0.033897191   -0.062217894    0.012803539   -0.011854235   -0.015088053    31.901086      5.9455323      5.9455323      0              0              0              0.19509032   
    169000   0.10001354     0.19314914    -4.9984465     -4.8881073     -0.006835885   -0.029581491   -0.0042128804   0.013286717   -0.0027265454   0.00022148723 -0.011328122    32.221698      5.9455323      5.9455323      0              0              0              0.19314914   
    170000   0.10524224     0.19122727    -4.9902835     -4.8355964     -0.00041495136  0.010900177    0.0091451301  -0.021290161   -0.012959877   -0.0071374198  -0.01187133     32.545531      5.9455323      5.9455323      0              0              0              0.19122727   
    171000   0.096100285    0.18932453    -4.9946363     -4.9463626     -0.016377606    0.019406999   -0.012139826   -0.056399993    0.027594969    0.0073879894  -0.0011159963   32.872619      5.9455323      5.9455323      0              0              0              0.18932453   
    172000   0.10523377     0.18744072    -5.00346       -4.7052101      0.024058619    0.049424902    0.029153795   -0.0064028392  -0.0044347443   0.010852582   -0.0025547505   33.202994      5.9455323      5.9455323      0              0              0              0.18744072   
    173000   0.1072802      0.18557565    -4.9815542     -4.9202828     -0.016675539    0.016135771   -0.0027424922  -0.063419896    0.010708054    0.022885704   -0.023329094    33.53669       5.9455323      5.9455323      0              0              0              0.18557565   
    174000   0.098229834    0.18372914    -4.999076      -4.9788349     -0.021106628   -0.0030328852  -0.0059668755  -0.054320123   -0.054441867    0.014787603    0.0021559873   33.873739      5.9455323      5.9455323      0              0              0              0.18372914   
    175000   0.10614315     0.18190101    -5.0011778     -4.8782285     -0.0058653713   0.031227578   -0.075468637    0.026644945   -0.016727342   -0.020725362   -0.024145419    34.214176      5.9455323      5.9455323      0              0              0              0.18190101   
    176000   0.088991862    0.18009106    -4.9998315     -5.2918549     -0.069555064   -0.070894311   -0.041917125   -0.095853756    0.009397877   -0.022155133   -0.058271682    34.558034      5.9455323      5.9455323      0              0              0              0.18009106   
    177000   0.1000603      0.17829913    -4.9951502     -5.1683107     -0.052274141   -0.034548048   -0.065275306   -0.056999069    0.0027750328  -0.014287246   -0.036003918    34.905348      5.9455323      5.9455323      0              0              0              0.17829913   
    178000   0.1055618      0.17652502    -4.9951046     -4.7748448      0.010063345    0.059254574   -0.0034918872  -0.025572653    0.017397824   -0.017777967   -0.010597622    35.256153      5.9455323      5.9455323      0              0              0              0.17652502   
    179000   0.10441133     0.17476857    -5.0153669     -5.1538987     -0.046768978   -0.030790342   -0.048808124   -0.060708468    0.011011552    0.022450312   -0.020842929    35.610483      5.9455323      5.9455323      0              0              0              0.17476857   
    180000   0.10168005     0.17302959    -5.0012526     -5.1583477     -0.048582401   -0.049001965   -0.068430591   -0.028314646    0.015989222   -0.025847198   -0.0067271792   35.968374      5.9455323      5.9455323      0              0              0              0.17302959   
    181000   0.1066827      0.17130792    -4.999891      -5.0363031     -0.030467288    0.011107798   -0.011794679   -0.090714982    0.014267845    0.021486843    0.0050254378   36.329863      5.9455323      5.9455323      0              0              0              0.17130792   
    182000   0.089059511    0.16960338    -5.0072042     -4.9632294     -0.013714208    0.0057096513   0.024840099   -0.071692374    0.0040763464   0.00020501836 -0.034026385    36.694984      5.9455323      5.9455323      0              0              0              0.16960338   
    183000   0.09972361     0.16791579    -4.9957805     -4.9504084     -0.015794062    0.0061246677  -0.020440352   -0.033066503   -0.014330016   -0.0044059844  -0.012990493    37.063775      5.9455323      5.9455323      0              0              0              0.16791579   
    184000   0.10675609     0.166245      -4.9876814     -4.7920533      0.0054852793   0.06664926    -0.018555004   -0.031638418    0.011527638    0.036185272   -0.0044073606   37.436272      5.9455323      5.9455323      0              0              0              0.166245     
    185000   0.096267037    0.16459084    -4.9936134     -5.0842206     -0.035055717    0.012553273   -0.041089401   -0.076631023   -0.0066741894  -0.042681429   -0.026755243    37.812512      5.9455323      5.9455323      0              0              0              0.16459084   
    186000   0.08672718     0.16295313    -4.9972298     -4.9059152     -0.0056479089   0.021953865   -0.043223703    0.0043261112   0.032716579    0.0055226628  -0.019683955    38.192534      5.9455323      5.9455323      0              0              0              0.16295313   
    187000   0.10487315     0.16133172    -4.9980819     -5.0398989     -0.029089594    0.033349442   -0.10570876    -0.014909463   -0.016363289    0.0012246619   0.013925098    38.576376      5.9455323      5.9455323      0              0              0              0.16133172   
    188000   0.0899405      0.15972644    -5.0045002     -5.0412145     -0.024823023   -0.017584583   -0.0081668938  -0.048717593   -0.0089209786  -0.016728898    0.001831459    38.964075      5.9455323      5.9455323      0              0              0              0.15972644   
    189000   0.10448843     0.15813714    -4.9976374     -5.1171772     -0.039604561   -0.022644725   -0.048085352   -0.048083605    0.019684845   -0.022413912    0.002088964    39.35567       5.9455323      5.9455323      0              0              0              0.15813714   
    190000   0.10277657     0.15656365    -4.9958628     -5.121314      -0.039688193   -0.032251199   -0.039162512   -0.047650869   -0.0026820822   0.017409145    0.022820497    39.751201      5.9455323      5.9455323      0              0              0              0.15656365   
    191000   0.098764977    0.15500582    -5.002116      -5.0281334     -0.02443795    -0.0087694403  -0.0033515759  -0.061192833    0.010243199   -0.017885493    0.01424568     40.150708      5.9455323      5.9455323      0              0              0              0.15500582   
    192000   0.095672775    0.15346348    -5.0047834     -5.0963374     -0.032694085   -0.029140326   -0.02393683    -0.045005101    0.021490313   -0.00278862     0.0014350181   40.554229      5.9455323      5.9455323      0              0              0              0.15346348   
    193000   0.10558657     0.15193649    -4.9992054     -4.7416688      0.013805321    0.0012742834   0.043535067   -0.0033933873   0.0067747284   0.011404651    0.0022868525   40.961806      5.9455323      5.9455323      0              0              0              0.15193649   
    194000   0.099830073    0.1504247     -4.9961151     -5.1877198     -0.046577105   -0.017357921   -0.029717654   -0.09265574     0.015338849    0.010786511   -0.02478674     41.373479      5.9455323      5.9455323      0              0              0              0.1504247    
    195000   0.09621441     0.14892795    -5.0082324     -5.1469065     -0.038216821   -0.023793705   -0.056407822   -0.034448934   -0.0014977112  -0.024076666   -0.020969155    41.789289      5.9455323      5.9455323      0              0              0              0.14892795   
    196000   0.098293847    0.14744609    -4.9911695     -4.7983344      0.0061835576   0.036771316    0.012192197   -0.03041284    -0.025304425   -0.0074042439   0.021357936    42.209278      5.9455323      5.9455323      0              0              0              0.14744609   
    197000   0.091733162    0.14597898    -4.9907162     -4.7783437      0.010014255    0.0064942595   0.028817389   -0.0052688834   0.02136304     0.029799324   -0.024258089    42.633489      5.9455323      5.9455323      0              0              0              0.14597898   
    198000   0.096852486    0.14452646    -5.0002503     -5.0246275     -0.022195259    0.0011061471  -0.03359453    -0.034097395   -0.011293508   -0.00064078279 -0.0032863706   43.061962      5.9455323      5.9455323      0              0              0              0.14452646   
    199000   0.1035741      0.1430884     -4.9832043     -5.1922946     -0.047306931   -0.004655221   -0.074953399   -0.062312172   -0.002101196    0.013283559   -0.0019101273   43.494742      5.9455323      5.9455323      0              0              0              0.1430884    
    200000   0.097002807    0.14166465    -4.9934805     -5.6409797     -0.10203407    -0.11023028    -0.13142136    -0.064450566    0.0096889947  -0.014923533   -0.01389203     43.931872      5.9455323      5.9455323      0              0              0              0.14166465   
Loop time of 22.9604 on 12 procs for 200000 steps with 200 atoms

Performance: 1505200.950 tau/day, 8710.654 timesteps/s
98.4% CPU use with 12 MPI tasks x 1 OpenMP threads

MPI task timing breakdown:
Section |  min time  |  avg time  |  max time  |%varavg| %total
---------------------------------------------------------------
Pair    | 0.49401    | 0.98757    | 1.603      |  33.1 |  4.30
Bond    | 0.035289   | 0.059514   | 0.079113   |   6.0 |  0.26
Neigh   | 0.033841   | 0.034431   | 0.034984   |   0.2 |  0.15
Comm    | 5.1153     | 5.6901     | 6.2046     |  13.9 | 24.78
Output  | 0.021924   | 0.022056   | 0.023235   |   0.2 |  0.10
Modify  | 15.536     | 15.599     | 15.668     |   1.0 | 67.94
Other   |            | 0.5679     |            |       |  2.47

Nlocal:        16.6667 ave          33 max           1 min
Histogram: 3 2 1 0 0 0 0 1 3 2
Nghost:        422.333 ave         487 max         349 min
Histogram: 3 3 0 0 0 0 0 0 1 5
Neighs:        1051.75 ave        2099 max          71 min
Histogram: 4 2 0 0 0 0 0 0 3 3

Total # of neighbors = 12621
Ave neighs/atom = 63.105
Ave special neighs/atom = 10.07
Neighbor list builds = 418
Dangerous builds = 0
System init for write_data ...
Generated 0 of 1 mixed pair_coeff terms from geometric mixing rule
WARNING: Not all mixed pair coeffs generated from mixing. Use write_data with 'pair ij' option to store all pair coeffs. (src/write_data.cpp:309)
Total wall time: 0:00:22
