ITEM: TIMESTEP
0
ITEM: NUMBER OF ATOMS
200
ITEM: BOX BOUNDS pp pp pp
9.7027233848120446e+01 1.0297276615187961e+02
9.7027233848120446e+01 1.0297276615187961e+02
9.7027233848120446e+01 1.0297276615187961e+02
ITEM: ATOMS id mol type x y z
1 1 1 101.191 97.5452 97.9681
2 1 1 100.811 97.5031 99.1315
3 2 1 99.7389 99.1508 101.996
4 2 1 99.5701 97.9922 101.722
5 3 1 98.0121 97.5678 100.515
6 3 1 97.3116 98.4738 100.118
7 4 1 97.6504 101.493 100.767
8 4 1 97.5011 101.439 99.6458
9 5 1 97.6036 97.4855 99.4717
10 5 1 102.521 102.824 99.4856
11 6 1 100.432 102.134 102.507
12 6 1 101.61 101.835 102.622
13 7 1 98.9386 101.638 97.1087
14 7 1 100.028 101.959 97.5259
15 8 1 98.13 98.7977 100.771
16 8 1 97.552 99.6429 100.045
17 9 1 102.284 100.216 97.7859
18 9 1 102.022 99.0893 97.8456
19 10 1 99.7765 101.91 98.6466
20 10 1 100.257 102.587 99.5144
21 11 1 97.3005 100.286 99.2244
22 11 1 97.3431 100.458 98.09
23 12 1 102.656 102.048 100.247
24 12 1 102.964 97.3016 100.405
25 13 1 100.851 101.214 102.075
26 13 1 100.925 100.315 101.292
27 14 1 101.262 100.636 98.1731
28 14 1 100.848 101.295 97.2441
29 15 1 99.9522 97.806 98.6768
30 15 1 99.2804 102.818 99.011
31 16 1 100.363 101.142 99.2888
32 16 1 100.683 101.566 98.249
33 17 1 99.2726 99.5853 98.9094
34 17 1 99.4251 99.8094 97.7057
35 18 1 99.9376 100.149 99.5016
36 18 1 99.3884 100.964 98.8813
37 19 1 97.4815 101.441 98.6042
38 19 1 98.4525 102.008 99.1831
39 20 1 98.9429 98.4698 102.59
40 20 1 98.48 98.1853 101.577
41 21 1 98.7635 100.353 98.3029
42 21 1 98.9614 100.555 97.1099
43 22 1 97.4741 102.412 99.0459
44 22 1 102.874 97.3463 98.5884
45 23 1 99.3661 102.649 101.579
46 23 1 98.4154 102.427 100.905
47 24 1 97.7137 98.0786 102.36
48 24 1 97.6393 102.928 102.576
49 25 1 99.4327 101.658 101.932
50 25 1 99.1056 100.501 101.933
51 26 1 100.233 100.215 102.066
52 26 1 100.516 99.3994 102.769
53 27 1 101.01 101.932 99.1728
54 27 1 100.451 101.852 100.245
55 28 1 98.6832 98.9484 97.7139
56 28 1 98.9759 97.8679 98.1675
57 29 1 97.2101 99.6704 97.3413
58 29 1 102.831 99.3572 98.4479
59 30 1 102.624 99.2837 99.5613
60 30 1 101.781 100.068 99.8661
61 31 1 100.24 98.0261 97.6809
62 31 1 100.888 98.4797 98.587
63 32 1 101.764 101.624 98.1977
64 32 1 101.81 100.963 97.23
65 33 1 102.49 99.7483 100.513
66 33 1 97.5811 99.7288 101.093
67 34 1 97.9373 99.9375 102.361
68 34 1 98.029 100.595 101.405
69 35 1 100.056 97.1947 102.236
70 35 1 100.628 98.1087 101.62
71 36 1 98.3408 99.8498 99.285
72 36 1 97.9872 100.614 100.126
73 37 1 97.6685 101.812 102.883
74 37 1 97.4979 101.472 101.788
75 38 1 98.5281 101.507 101.373
76 38 1 98.2965 101.081 102.407
77 39 1 101.764 98.6878 101.597
78 39 1 102.009 99.791 101.605
79 40 1 100.221 98.9681 100.969
80 40 1 101.091 98.3328 100.646
81 41 1 98.7535 97.4048 102.303
82 41 1 99.4296 102.445 102.685
83 42 1 102.807 98.9575 101.08
84 42 1 102.659 98.4343 102.11
85 43 1 98.9881 100.526 99.7592
86 43 1 98.5642 99.699 100.471
87 44 1 98.4558 102.686 97.2535
88 44 1 99.3785 102.667 98.0126
89 45 1 101.378 97.4742 101.237
90 45 1 100.734 97.4399 100.23
91 46 1 101.935 99.2052 102.686
92 46 1 101.931 98.1226 97.3292
93 47 1 100.165 98.2059 102.592
94 47 1 99.3785 97.5415 97.2245
95 48 1 98.3184 100.952 99.0609
96 48 1 98.848 101.687 98.2095
97 49 1 101.183 102.311 97.5607
98 49 1 101.932 102.849 102.71
99 50 1 102.799 97.6201 102.9
100 50 1 102.726 102.357 97.1218
101 51 1 102.116 98.6948 100.283
102 51 1 101.214 99.1897 99.6672
103 52 1 101.56 102.604 98.5875
104 52 1 101.399 102.746 99.6975
105 53 1 99.8295 102.733 100.449
106 53 1 99.816 97.9854 100.647
107 54 1 97.444 98.7226 99.0576
108 54 1 98.3463 98.9004 99.7852
109 55 1 98.0304 98.9702 102.823
110 55 1 102.809 98.7068 97.1626
111 56 1 101.43 98.1711 99.5978
112 56 1 100.34 98.4857 99.8742
113 57 1 101.592 101.102 99.1364
114 57 1 100.935 100.209 99.2375
115 58 1 99.707 99.9162 101.154
116 58 1 100.487 99.7256 100.273
117 59 1 101.262 100.199 102.416
118 59 1 100.353 100.327 97.2869
119 60 1 101.032 101.316 101.021
120 60 1 101.19 102.475 100.731
121 61 1 98.8536 102.746 99.968
122 61 1 98.6628 97.7392 99.2209
123 62 1 101.865 97.7547 102.126
124 62 1 101.13 98.585 102.46
125 63 1 100.044 100.953 101.347
126 63 1 99.838 100.961 100.191
127 64 1 100.386 102.072 101.396
128 64 1 101.126 102.757 102.04
129 65 1 97.4611 97.1356 97.7044
130 65 1 97.852 97.8686 98.5234
131 66 1 102.561 101.461 101.143
132 66 1 101.829 100.59 100.79
133 67 1 99.6846 98.8588 97.2554
134 67 1 98.9323 99.5921 102.649
135 68 1 102.666 102.233 101.999
136 68 1 101.644 101.969 101.577
137 69 1 101.834 97.6642 98.8014
138 69 1 101.922 98.837 98.9132
139 70 1 102.613 101.358 102.576
140 70 1 102.95 100.478 101.833
141 71 1 100.274 99.2347 99.1046
142 71 1 101.257 99.5803 98.4973
143 72 1 97.4257 100.668 102.952
144 72 1 98.2298 99.905 97.4668
145 73 1 102.473 100.862 99.768
146 73 1 102.506 100.989 98.5852
147 74 1 101.058 98.6917 97.556
148 74 1 101.342 99.8231 97.4225
149 75 1 98.8485 98.0891 100.189
150 75 1 99.1929 98.8127 101.072
151 76 1 102.229 102.722 101.043
152 76 1 102.351 97.9701 101.11
153 77 1 98.0266 97.202 101.593
154 77 1 97.3068 102.442 101.118
155 78 1 97.8349 102.102 97.9244
156 78 1 102.797 101.389 97.6673
157 79 1 97.6364 98.6998 97.8693
158 79 1 102.549 98.29 98.2207
159 80 1 99.3476 98.5689 99.3604
160 80 1 99.604 98.7542 98.2849
161 81 2 97.4521 98.0951 101.212
162 82 2 100.484 102.7 98.3787
163 83 2 97.81 102.408 100.065
164 84 2 98.2087 97.8436 97.3596
165 85 2 99.5162 101.85 99.6972
166 86 2 99.8213 101.109 102.696
167 87 2 101.883 100.883 101.95
168 88 2 99.6862 101.034 97.875
169 89 2 101.925 97.5219 100.253
170 90 2 102.396 101.817 99.2162
171 91 2 100.894 99.3096 101.728
172 92 2 98.1976 101.079 97.6628
173 93 2 99.0076 97.4183 100.958
174 94 2 98.5241 101.578 100.135
175 95 2 98.9532 100.757 100.791
176 96 2 101.061 97.5072 102.863
177 97 2 102.068 100.094 98.8787
178 98 2 100.247 97.0367 97.3808
179 99 2 101.384 99.4493 100.798
180 100 2 99.5064 99.347 100.072
181 101 2 98.3941 102.231 102.141
182 102 2 97.8572 99.5838 98.3766
183 103 2 102.191 97.1071 97.7835
184 104 2 99.7138 97.5071 99.676
185 105 2 100.378 99.412 97.9844
186 106 2 102.566 98.0002 99.4894
187 107 2 100.997 100.774 100.157
188 108 2 100.345 97.179 101.262
189 109 2 99.3879 101.799 100.817
190 110 2 97.8258 98.9685 101.785
191 111 2 98.4786 98.7699 98.7586
192 112 2 101.632 101.626 100.158
193 113 2 98.3762 102.788 98.4181
194 114 2 98.7174 99.5759 101.538
195 115 2 100.221 100.317 98.493
196 116 2 102.69 102.225 98.2803
197 117 2 102.914 99.4803 102.154
198 118 2 97.0822 100.614 100.667
199 119 2 102.926 97.3802 101.826
200 120 2 102.327 100.185 102.671
ITEM: TIMESTEP
1000
ITEM: NUMBER OF ATOMS
200
ITEM: BOX BOUNDS pp pp pp
9.6997357051591891e+01 1.0300264294840817e+02
9.7027233848120446e+01 1.0297276615187961e+02
9.7027233848120446e+01 1.0297276615187961e+02
ITEM: ATOMS id mol type x y z
1 1 1 101.2 97.6059 97.9806
2 1 1 100.772 97.4546 99.1276
3 2 1 99.6911 99.1529 102.002
4 2 1 99.525 98.0084 101.69
5 3 1 98.0775 97.4195 100.442
6 3 1 97.4739 98.3552 100.057
7 4 1 97.702 101.45 100.819
8 4 1 97.41 101.392 99.7384
9 5 1 97.6618 97.3997 99.4573
10 5 1 102.536 102.839 99.4715
11 6 1 100.424 102.139 102.544
12 6 1 101.594 101.873 102.626
13 7 1 98.8727 101.642 97.1396
14 7 1 99.9376 101.963 97.5371
15 8 1 98.1205 98.868 100.779
16 8 1 97.4978 99.613 100.091
17 9 1 102.281 100.21 97.8073
18 9 1 102.037 99.032 97.8157
19 10 1 99.813 101.897 98.6818
20 10 1 100.252 102.601 99.5249
21 11 1 97.1722 100.206 99.1296
22 11 1 97.2872 100.397 98.0267
23 12 1 102.684 102.054 100.253
24 12 1 103.025 97.2491 100.392
25 13 1 100.8 101.164 102.081
26 13 1 100.895 100.312 101.206
27 14 1 101.291 100.59 98.1116
28 14 1 100.867 101.328 97.2331
29 15 1 99.8783 97.7679 98.6851
30 15 1 99.2612 102.772 98.9937
31 16 1 100.391 101.118 99.3208
32 16 1 100.729 101.491 98.2481
33 17 1 99.2263 99.5905 98.8821
34 17 1 99.4245 99.8169 97.756
35 18 1 99.9322 100.16 99.5089
36 18 1 99.3884 100.961 98.919
37 19 1 97.4491 101.424 98.6844
38 19 1 98.414 102.044 99.2061
39 20 1 98.918 98.4454 102.573
40 20 1 98.5049 98.2069 101.517
41 21 1 98.716 100.393 98.2738
42 21 1 98.9644 100.527 97.107
43 22 1 97.4273 102.366 99.0454
44 22 1 102.977 97.3491 98.6254
45 23 1 99.3608 102.656 101.601
46 23 1 98.3895 102.426 100.923
47 24 1 97.7927 98.0393 102.32
48 24 1 97.6502 102.868 102.602
49 25 1 99.4363 101.711 102.021
50 25 1 99.1339 100.553 101.983
51 26 1 100.159 100.233 102.113
52 26 1 100.525 99.3215 102.748
53 27 1 101.007 101.972 99.1659
54 27 1 100.499 101.802 100.237
55 28 1 98.6543 98.917 97.6944
56 28 1 98.9268 97.8203 98.1445
57 29 1 97.1493 99.6629 97.306
58 29 1 102.812 99.3697 98.4008
59 30 1 102.624 99.2658 99.5748
60 30 1 101.811 100.048 99.9304
61 31 1 100.222 98.0611 97.6696
62 31 1 100.854 98.509 98.5694
63 32 1 101.803 101.595 98.1573
64 32 1 101.819 100.934 97.21
65 33 1 102.498 99.7898 100.694
66 33 1 97.5092 99.7924 101.215
67 34 1 97.7726 99.9215 102.283
68 34 1 98.051 100.631 101.382
69 35 1 100.081 97.2514 102.263
70 35 1 100.576 98.1268 101.559
71 36 1 98.2684 99.8524 99.2673
72 36 1 97.991 100.605 100.159
73 37 1 97.657 101.81 102.879
74 37 1 97.467 101.477 101.838
75 38 1 98.632 101.51 101.407
76 38 1 98.2785 101.016 102.424
77 39 1 101.891 98.7281 101.567
78 39 1 101.93 99.8892 101.632
79 40 1 100.196 98.963 100.953
80 40 1 101.157 98.3498 100.698
81 41 1 98.7188 97.3991 102.326
82 41 1 99.374 102.496 102.787
83 42 1 102.961 98.8927 100.95
84 42 1 102.788 98.3742 102.024
85 43 1 98.9898 100.476 99.7506
86 43 1 98.4916 99.7793 100.53
87 44 1 98.4399 102.716 97.339
88 44 1 99.4159 102.765 97.9806
89 45 1 101.413 97.4768 101.28
90 45 1 100.754 97.4466 100.285
91 46 1 101.932 99.1138 102.686
92 46 1 102.03 98.0748 97.2813
93 47 1 100.16 98.2734 102.536
94 47 1 99.3538 97.6245 97.1588
95 48 1 98.298 100.975 99.1314
96 48 1 98.8174 101.714 98.2909
97 49 1 101.198 102.299 97.6117
98 49 1 101.928 102.881 102.85
99 50 1 102.854 97.5784 102.852
100 50 1 102.794 102.375 97.191
101 51 1 102.074 98.7072 100.317
102 51 1 101.173 99.221 99.6803
103 52 1 101.587 102.599 98.5423
104 52 1 101.439 102.744 99.6971
105 53 1 99.8462 102.696 100.454
106 53 1 99.8646 97.9846 100.621
107 54 1 97.436 98.796 99.0623
108 54 1 98.3933 98.9431 99.7628
109 55 1 98.0141 98.9839 102.804
110 55 1 102.865 98.6883 97.1092
111 56 1 101.393 98.2006 99.6096
112 56 1 100.316 98.5385 99.8914
113 57 1 101.59 101.067 99.1326
114 57 1 100.963 100.145 99.2937
115 58 1 99.6436 99.9104 101.129
116 58 1 100.488 99.7899 100.319
117 59 1 101.231 100.176 102.405
118 59 1 100.381 100.347 97.2722
119 60 1 101.101 101.338 101.053
120 60 1 101.183 102.486 100.706
121 61 1 98.7977 102.775 99.9245
122 61 1 98.6691 97.7819 99.1946
123 62 1 101.984 97.7368 102.128
124 62 1 101.181 98.565 102.33
125 63 1 99.9716 101.023 101.389
126 63 1 99.8673 100.879 100.23
127 64 1 100.408 102.017 101.495
128 64 1 101.122 102.836 102.087
129 65 1 97.4593 97.1655 97.7081
130 65 1 97.8469 97.9387 98.5255
131 66 1 102.506 101.606 101.21
132 66 1 101.914 100.664 100.782
133 67 1 99.6408 98.9092 97.239
134 67 1 98.9137 99.5678 102.602
135 68 1 102.699 102.288 102.06
136 68 1 101.64 102.057 101.598
137 69 1 101.829 97.64 98.9001
138 69 1 101.898 98.8775 98.9317
139 70 1 102.603 101.345 102.491
140 70 1 102.948 100.482 101.798
141 71 1 100.262 99.279 99.0724
142 71 1 101.282 99.5494 98.4735
143 72 1 97.3993 100.708 102.886
144 72 1 98.1741 99.9268 97.3991
145 73 1 102.509 100.862 99.7571
146 73 1 102.519 100.955 98.5545
147 74 1 101.071 98.5944 97.4748
148 74 1 101.353 99.7692 97.3987
149 75 1 98.8367 98.1051 100.176
150 75 1 99.1754 98.8369 100.995
151 76 1 102.277 102.72 101.073
152 76 1 102.489 97.971 101.049
153 77 1 98.0515 97.2116 101.554
154 77 1 97.2588 102.388 101.134
155 78 1 97.7602 102.059 97.9702
156 78 1 102.812 101.397 97.6192
157 79 1 97.5931 98.6805 97.8419
158 79 1 102.575 98.2593 98.2335
159 80 1 99.3529 98.5935 99.3948
160 80 1 99.6298 98.7758 98.2797
161 81 2 97.5217 98.043 101.168
162 82 2 100.474 102.707 98.3482
163 83 2 97.7718 102.32 100.026
164 84 2 98.1486 97.8775 97.3283
165 85 2 99.498 101.851 99.7161
166 86 2 99.78 101.118 102.754
167 87 2 101.818 100.927 101.908
168 88 2 99.6906 101.003 97.8828
169 89 2 101.946 97.5649 100.232
170 90 2 102.375 101.766 99.2187
171 91 2 100.848 99.327 101.74
172 92 2 98.1422 101.078 97.7142
173 93 2 99.0335 97.3931 100.917
174 94 2 98.547 101.503 100.216
175 95 2 98.9989 100.74 100.814
176 96 2 101.052 97.5838 102.861
177 97 2 102.077 100.103 98.8942
178 98 2 100.302 97.0812 97.3678
179 99 2 101.374 99.4086 100.785
180 100 2 99.4748 99.3671 100.072
181 101 2 98.3794 102.232 102.16
182 102 2 97.846 99.5536 98.3218
183 103 2 102.277 97.168 97.888
184 104 2 99.6921 97.5095 99.6784
185 105 2 100.442 99.385 97.916
186 106 2 102.603 98.0955 99.5166
187 107 2 101.051 100.814 100.126
188 108 2 100.341 97.125 101.288
189 109 2 99.4885 101.777 100.823
190 110 2 97.7722 98.9386 101.774
191 111 2 98.4759 98.7842 98.7197
192 112 2 101.699 101.651 100.136
193 113 2 98.3285 102.819 98.4498
194 114 2 98.6824 99.655 101.532
195 115 2 100.284 100.284 98.4796
196 116 2 102.664 102.214 98.342
197 117 2 102.828 99.4132 102.039
198 118 2 97.0684 100.631 100.636
199 119 2 103.05 97.3648 101.846
200 120 2 102.329 100.157 102.628
ITEM: TIMESTEP
2000
ITEM: NUMBER OF ATOMS
200
ITEM: BOX BOUNDS pp pp pp
9.6967179988266295e+01 1.0303282001173376e+02
9.7027233848120446e+01 1.0297276615187961e+02
9.7027233848120446e+01 1.0297276615187961e+02
ITEM: ATOMS id mol type x y z
1 1 1 101.225 97.5576 97.9973
2 1 1 100.723 97.5113 99.1128
3 2 1 99.6751 99.1043 102.027
4 2 1 99.4869 97.9504 101.755
5 3 1 98.0244 97.567 100.457
6 3 1 97.3161 98.5061 100.115
7 4 1 97.6715 101.474 100.88
8 4 1 97.4068 101.51 99.7684
9 5 1 97.5496 97.4747 99.4746
10 5 1 102.591 102.874 99.4388
11 6 1 100.444 102.119 102.524
12 6 1 101.624 101.849 102.613
13 7 1 98.9394 101.662 97.2341
14 7 1 100.04 101.96 97.5643
15 8 1 98.0768 98.8383 100.815
16 8 1 97.4697 99.6278 100.091
17 9 1 102.342 100.2 97.8374
18 9 1 102.015 99.0625 97.7947
19 10 1 99.8871 101.886 98.6759
20 10 1 100.341 102.561 99.5092
21 11 1 97.1304 100.158 99.1899
22 11 1 97.3149 100.458 98.0787
23 12 1 102.597 102.143 100.26
24 12 1 102.993 97.2862 100.386
25 13 1 100.834 101.209 102.073
26 13 1 100.858 100.317 101.244
27 14 1 101.358 100.625 98.116
28 14 1 100.835 101.223 97.2214
29 15 1 99.7598 97.6742 98.5964
30 15 1 99.258 102.694 99.0353
31 16 1 100.398 101.078 99.3029
32 16 1 100.735 101.48 98.2331
33 17 1 99.2691 99.5985 98.9314
34 17 1 99.427 99.7693 97.7827
35 18 1 99.932 100.152 99.542
36 18 1 99.3631 100.975 98.91
37 19 1 97.4291 101.397 98.7179
38 19 1 98.3786 102.028 99.2743
39 20 1 98.8408 98.437 102.64
40 20 1 98.421 98.1781 101.575
41 21 1 98.6705 100.371 98.2873
42 21 1 99.0068 100.532 97.1282
43 22 1 97.4365 102.414 99.0418
44 22 1 102.993 97.4104 98.5919
45 23 1 99.397 102.698 101.631
46 23 1 98.4332 102.42 100.908
47 24 1 97.6727 98.0458 102.339
48 24 1 97.5628 102.876 102.59
49 25 1 99.4066 101.697 102
50 25 1 99.0913 100.547 101.961
51 26 1 100.131 100.14 102.035
52 26 1 100.605 99.3178 102.704
53 27 1 101.102 101.906 99.09
54 27 1 100.505 101.747 100.16
55 28 1 98.6602 98.9504 97.6503
56 28 1 98.8654 97.8637 98.0982
57 29 1 97.1217 99.6644 97.3264
58 29 1 102.861 99.3329 98.3799
59 30 1 102.625 99.242 99.5563
60 30 1 101.85 100.141 99.8777
61 31 1 100.247 98.0483 97.7033
62 31 1 100.929 98.4978 98.6178
63 32 1 101.837 101.614 98.1699
64 32 1 101.863 100.925 97.1974
65 33 1 102.541 99.7819 100.563
66 33 1 97.5258 99.7476 101.128
67 34 1 97.8361 99.948 102.367
68 34 1 98.0385 100.597 101.397
69 35 1 100.06 97.25 102.261
70 35 1 100.585 98.1498 101.594
71 36 1 98.2112 99.8976 99.2312
72 36 1 97.9816 100.584 100.161
73 37 1 97.7266 101.901 102.979
74 37 1 97.4175 101.634 101.905
75 38 1 98.5738 101.539 101.434
76 38 1 98.2906 101.066 102.494
77 39 1 101.892 98.7182 101.504
78 39 1 101.933 99.8854 101.671
79 40 1 100.178 98.9654 100.946
80 40 1 101.198 98.3953 100.699
81 41 1 98.6899 97.4181 102.283
82 41 1 99.4006 102.534 102.721
83 42 1 102.925 98.9266 101.052
84 42 1 102.749 98.3885 102.072
85 43 1 98.9894 100.489 99.7802
86 43 1 98.5113 99.7487 100.548
87 44 1 98.4017 102.714 97.3332
88 44 1 99.3275 102.717 97.9462
89 45 1 101.408 97.473 101.228
90 45 1 100.748 97.4791 100.231
91 46 1 101.962 99.2519 102.668
92 46 1 102.009 98.1098 97.1741
93 47 1 100.212 98.2311 102.567
94 47 1 99.3241 97.5934 97.1805
95 48 1 98.3104 100.979 99.0914
96 48 1 98.8993 101.758 98.2932
97 49 1 101.194 102.278 97.5853
98 49 1 101.938 102.876 102.792
99 50 1 102.882 97.5979 102.859
100 50 1 102.822 102.381 97.1475
101 51 1 102.159 98.6869 100.347
102 51 1 101.29 99.1756 99.6835
103 52 1 101.653 102.609 98.5684
104 52 1 101.457 102.705 99.7063
105 53 1 99.8422 102.654 100.425
106 53 1 99.8394 97.9579 100.63
107 54 1 97.4201 98.7686 99.0818
108 54 1 98.3721 99.0139 99.7888
109 55 1 97.9199 98.9719 102.866
110 55 1 102.864 98.7059 97.0981
111 56 1 101.421 98.1575 99.6165
112 56 1 100.319 98.5637 99.9233
113 57 1 101.651 101.034 99.1039
114 57 1 100.95 100.101 99.2265
115 58 1 99.6434 99.9508 101.111
116 58 1 100.489 99.7367 100.28
117 59 1 101.155 100.264 102.369
118 59 1 100.267 100.209 97.2126
119 60 1 100.955 101.301 100.963
120 60 1 101.127 102.46 100.673
121 61 1 98.7294 102.777 99.9619
122 61 1 98.6336 97.7606 99.2527
123 62 1 101.942 97.6978 102.095
124 62 1 101.241 98.5849 102.32
125 63 1 99.9993 101.003 101.459
126 63 1 99.866 100.913 100.28
127 64 1 100.39 102.072 101.449
128 64 1 101.188 102.787 102.039
129 65 1 97.4317 97.0958 97.7263
130 65 1 97.8546 97.8968 98.5126
131 66 1 102.598 101.559 101.188
132 66 1 101.851 100.677 100.883
133 67 1 99.6691 98.9256 97.1382
134 67 1 98.8647 99.6026 102.645
135 68 1 102.583 102.274 102.086
136 68 1 101.582 101.935 101.526
137 69 1 101.921 97.6048 98.8599
138 69 1 101.987 98.7866 98.8384
139 70 1 102.706 101.359 102.61
140 70 1 103.077 100.577 101.826
141 71 1 100.284 99.2208 99.0692
142 71 1 101.268 99.5442 98.3888
143 72 1 97.3766 100.696 102.974
144 72 1 98.1551 99.9571 97.4598
145 73 1 102.607 100.873 99.7487
146 73 1 102.585 100.978 98.563
147 74 1 101.083 98.6275 97.4553
148 74 1 101.318 99.8384 97.3685
149 75 1 98.8657 98.1888 100.211
150 75 1 99.1503 98.8637 101.11
151 76 1 102.203 102.739 101.109
152 76 1 102.458 97.9246 101.098
153 77 1 98.0041 97.1894 101.527
154 77 1 97.1746 102.421 101.083
155 78 1 97.8394 102.074 98.0372
156 78 1 103.016 101.393 97.6861
157 79 1 97.6024 98.681 97.8577
158 79 1 102.588 98.2181 98.0941
159 80 1 99.37 98.5788 99.3714
160 80 1 99.5966 98.7425 98.2398
161 81 2 97.4276 98.0442 101.17
162 82 2 100.505 102.692 98.365
163 83 2 97.6808 102.435 100.117
164 84 2 98.088 97.8369 97.3345
165 85 2 99.4751 101.784 99.7242
166 86 2 99.8056 101.093 102.706
167 87 2 101.982 100.912 101.965
168 88 2 99.6863 100.984 97.9063
169 89 2 101.935 97.5064 100.234
170 90 2 102.459 101.82 99.2112
171 91 2 100.89 99.3075 101.636
172 92 2 98.1776 101.112 97.7421
173 93 2 99.0118 97.396 100.937
174 94 2 98.5112 101.503 100.19
175 95 2 98.9513 100.75 100.804
176 96 2 101.047 97.5831 102.836
177 97 2 102.112 100.067 98.8641
178 98 2 100.304 97.0442 97.3629
179 99 2 101.442 99.5225 100.764
180 100 2 99.425 99.3527 100.096
181 101 2 98.3939 102.311 102.178
182 102 2 97.8268 99.5624 98.349
183 103 2 102.271 97.1408 97.8183
184 104 2 99.6595 97.4733 99.6668
185 105 2 100.406 99.3177 97.9155
186 106 2 102.625 98.0603 99.5404
187 107 2 101.029 100.721 100.096
188 108 2 100.341 97.1637 101.254
189 109 2 99.3944 101.755 100.817
190 110 2 97.7584 98.9765 101.79
191 111 2 98.5111 98.8007 98.7038
192 112 2 101.685 101.586 100.074
193 113 2 98.3573 102.854 98.4709
194 114 2 98.6554 99.6311 101.604
195 115 2 100.312 100.278 98.4191
196 116 2 102.754 102.178 98.2886
197 117 2 102.948 99.4423 102.099
198 118 2 97.068 100.655 100.636
199 119 2 103.012 97.3452 101.791
200 120 2 102.437 100.182 102.666
ITEM: TIMESTEP
3000
ITEM: NUMBER OF ATOMS
200
ITEM: BOX BOUNDS pp pp pp
9.6936699640412158e+01 1.0306330035958790e+02
9.7027233848120446e+01 1.0297276615187961e+02
9.7027233848120446e+01 1.0297276615187961e+02
ITEM: ATOMS id mol type x y z
1 1 1 101.239 97.5455 98.0142
2 1 1 100.75 97.48 99.1178
3 2 1 99.6067 99.0844 102.011
4 2 1 99.4927 97.9239 101.789
5 3 1 97.9737 97.4792 100.513
6 3 1 97.3559 98.4522 100.049
7 4 1 97.6717 101.469 100.832
8 4 1 97.3786 101.436 99.7341
9 5 1 97.5027 97.4736 99.5358
10 5 1 102.517 102.869 99.4811
11 6 1 100.454 102.063 102.478
12 6 1 101.648 101.884 102.553
13 7 1 98.9058 101.642 97.2022
14 7 1 100.032 101.969 97.5259
15 8 1 98.0477 98.8411 100.767
16 8 1 97.4006 99.6473 100.119
17 9 1 102.3 100.225 97.8548
18 9 1 102.019 99.0724 97.8014
19 10 1 99.7924 101.892 98.6314
20 10 1 100.239 102.568 99.4815
21 11 1 97.2073 100.231 99.2299
22 11 1 97.2455 100.442 98.0817
23 12 1 102.742 102.086 100.353
24 12 1 102.996 97.3139 100.402
25 13 1 100.867 101.191 102.065
26 13 1 100.864 100.311 101.238
27 14 1 101.308 100.643 98.1392
28 14 1 100.835 101.326 97.2458
29 15 1 99.81 97.6217 98.538
30 15 1 99.2226 102.687 99.0402
31 16 1 100.375 101.1 99.3009
32 16 1 100.748 101.556 98.2881
33 17 1 99.2261 99.5531 98.8792
34 17 1 99.4075 99.7688 97.7027
35 18 1 99.8972 100.108 99.4981
36 18 1 99.4117 100.892 98.8289
37 19 1 97.4136 101.373 98.7221
38 19 1 98.3595 102.014 99.2227
39 20 1 98.8552 98.5183 102.6
40 20 1 98.462 98.231 101.569
41 21 1 98.6901 100.376 98.2833
42 21 1 98.9629 100.584 97.1129
43 22 1 97.3999 102.428 99.0473
44 22 1 102.963 97.4012 98.6217
45 23 1 99.4232 102.677 101.604
46 23 1 98.4102 102.444 100.969
47 24 1 97.6843 98.0462 102.311
48 24 1 97.6068 102.9 102.608
49 25 1 99.4742 101.703 101.972
50 25 1 99.098 100.531 102.016
51 26 1 100.13 100.081 102.043
52 26 1 100.593 99.2512 102.715
53 27 1 101.086 101.916 99.2039
54 27 1 100.464 101.78 100.173
55 28 1 98.5958 98.9909 97.6688
56 28 1 98.8232 97.8344 98.1247
57 29 1 97.1544 99.6763 97.2907
58 29 1 102.855 99.3518 98.3631
59 30 1 102.701 99.2914 99.5623
60 30 1 101.821 100.079 99.8657
61 31 1 100.291 98.0598 97.6982
62 31 1 100.994 98.4356 98.5865
63 32 1 101.871 101.589 98.1951
64 32 1 101.839 100.948 97.157
65 33 1 102.542 99.7813 100.593
66 33 1 97.4587 99.7995 101.2
67 34 1 97.8001 99.9773 102.355
68 34 1 98.0591 100.63 101.372
69 35 1 100.128 97.2152 102.258
70 35 1 100.525 98.1791 101.569
71 36 1 98.255 99.8972 99.2645
72 36 1 97.9509 100.578 100.217
73 37 1 97.7307 101.885 102.934
74 37 1 97.4537 101.61 101.86
75 38 1 98.5573 101.53 101.423
76 38 1 98.2126 100.999 102.432
77 39 1 101.877 98.7191 101.565
78 39 1 102.02 99.8916 101.614
79 40 1 100.203 99.0068 100.971
80 40 1 101.169 98.3712 100.649
81 41 1 98.6811 97.4593 102.329
82 41 1 99.3647 102.522 102.736
83 42 1 102.991 98.9324 100.96
84 42 1 102.828 98.4481 102.007
85 43 1 99.0002 100.51 99.8046
86 43 1 98.5738 99.7014 100.515
87 44 1 98.4452 102.802 97.308
88 44 1 99.375 102.708 97.9986
89 45 1 101.361 97.5427 101.279
90 45 1 100.739 97.475 100.236
91 46 1 101.963 99.2218 102.622
92 46 1 102.035 98.1168 97.1855
93 47 1 100.247 98.1618 102.588
94 47 1 99.3478 97.6285 97.2051
95 48 1 98.2594 100.968 99.1484
96 48 1 98.8126 101.662 98.3198
97 49 1 101.253 102.347 97.5491
98 49 1 102.031 102.876 102.754
99 50 1 102.963 97.6441 102.883
100 50 1 102.936 102.389 97.1171
101 51 1 102.116 98.7752 100.292
102 51 1 101.21 99.2048 99.5964
103 52 1 101.673 102.59 98.5754
104 52 1 101.476 102.778 99.7116
105 53 1 99.808 102.699 100.44
106 53 1 99.8327 97.9412 100.635
107 54 1 97.314 98.7325 99.0394
108 54 1 98.2615 98.9796 99.7413
109 55 1 97.9088 98.9969 102.812
110 55 1 102.89 98.751 97.1007
111 56 1 101.439 98.2058 99.5709
112 56 1 100.347 98.5579 99.9373
113 57 1 101.695 101.076 99.1064
114 57 1 100.945 100.153 99.2568
115 58 1 99.5647 99.8978 101.147
116 58 1 100.47 99.793 100.317
117 59 1 101.251 100.225 102.377
118 59 1 100.321 100.25 97.2579
119 60 1 100.985 101.32 101.014
120 60 1 101.176 102.509 100.702
121 61 1 98.7825 102.681 99.9907
122 61 1 98.5428 97.7064 99.2697
123 62 1 102.017 97.7254 102.069
124 62 1 101.228 98.508 102.34
125 63 1 99.9809 100.953 101.45
126 63 1 99.9515 100.811 100.277
127 64 1 100.371 102.075 101.377
128 64 1 101.164 102.756 102.057
129 65 1 97.3488 97.0803 97.7783
130 65 1 97.7832 97.8844 98.5465
131 66 1 102.678 101.558 101.276
132 66 1 101.945 100.733 100.811
133 67 1 99.6934 98.8359 97.1744
134 67 1 98.9151 99.5731 102.64
135 68 1 102.685 102.309 102.048
136 68 1 101.689 101.94 101.446
137 69 1 101.932 97.6149 98.8879
138 69 1 102.062 98.8046 98.8605
139 70 1 102.73 101.391 102.566
140 70 1 103.134 100.578 101.888
141 71 1 100.25 99.1612 99.0641
142 71 1 101.288 99.5006 98.4731
143 72 1 97.3276 100.734 102.97
144 72 1 98.1797 99.9603 97.4196
145 73 1 102.554 100.902 99.7951
146 73 1 102.625 100.981 98.5881
147 74 1 101.12 98.6164 97.4414
148 74 1 101.303 99.8062 97.4469
149 75 1 98.7754 98.155 100.201
150 75 1 99.1495 98.8654 101.026
151 76 1 102.252 102.783 101.083
152 76 1 102.479 97.9937 101.053
153 77 1 97.9909 97.2181 101.619
154 77 1 97.2229 102.458 101.115
155 78 1 97.8076 102.063 98.0127
156 78 1 102.979 101.427 97.6878
157 79 1 97.5412 98.6962 97.8353
158 79 1 102.62 98.209 98.1031
159 80 1 99.2773 98.5871 99.3651
160 80 1 99.5042 98.6988 98.2206
161 81 2 97.4445 98.0848 101.177
162 82 2 100.564 102.62 98.3867
163 83 2 97.7443 102.355 100.089
164 84 2 98.0467 97.8506 97.3394
165 85 2 99.4081 101.693 99.7239
166 86 2 99.8273 101.029 102.676
167 87 2 101.949 100.909 101.92
168 88 2 99.7633 101.029 97.8292
169 89 2 101.94 97.5822 100.255
170 90 2 102.513 101.813 99.2281
171 91 2 100.954 99.322 101.707
172 92 2 98.1173 101.076 97.7171
173 93 2 98.9454 97.4011 100.951
174 94 2 98.4848 101.523 100.191
175 95 2 98.9838 100.75 100.829
176 96 2 101.078 97.4955 102.889
177 97 2 102.117 100.087 98.8509
178 98 2 100.266 97.0355 97.3973
179 99 2 101.401 99.4761 100.757
180 100 2 99.4767 99.3482 100.079
181 101 2 98.4204 102.266 102.181
182 102 2 97.8068 99.606 98.3565
183 103 2 102.235 97.1772 97.8118
184 104 2 99.6878 97.5378 99.6397
185 105 2 100.397 99.2873 97.9462
186 106 2 102.625 98.0389 99.5963
187 107 2 101.111 100.772 100.114
188 108 2 100.354 97.1897 101.267
189 109 2 99.4153 101.705 100.844
190 110 2 97.7048 98.9748 101.766
191 111 2 98.4068 98.8133 98.6969
192 112 2 101.693 101.689 100.101
193 113 2 98.357 102.844 98.4036
194 114 2 98.5984 99.6376 101.573
195 115 2 100.27 100.202 98.4514
196 116 2 102.772 102.229 98.2937
197 117 2 102.966 99.4613 102.036
198 118 2 97.0178 100.64 100.712
199 119 2 103.095 97.3938 101.83
200 120 2 102.395 100.193 102.659
ITEM: TIMESTEP
4000
ITEM: NUMBER OF ATOMS
200
ITEM: BOX BOUNDS pp pp pp
9.6905912959969314e+01 1.0309408704003074e+02
9.7027233848120446e+01 1.0297276615187961e+02
9.7027233848120446e+01 1.0297276615187961e+02
ITEM: ATOMS id mol type x y z
1 1 1 101.256 97.5497 97.9488
2 1 1 100.774 97.4863 99.0317
3 2 1 99.6146 99.0843 101.971
4 2 1 99.4636 97.9068 101.761
5 3 1 97.9103 97.5224 100.509
6 3 1 97.229 98.5028 100.134
7 4 1 97.6142 101.522 100.812
8 4 1 97.3094 101.41 99.7372
9 5 1 97.456 97.4935 99.4746
10 5 1 102.576 102.867 99.504
11 6 1 100.474 102.138 102.594
12 6 1 101.656 101.854 102.493
13 7 1 98.9587 101.602 97.2572
14 7 1 100.055 101.891 97.568
15 8 1 98.0604 98.7852 100.782
16 8 1 97.4744 99.5848 100.104
17 9 1 102.372 100.244 97.8335
18 9 1 102.121 99.0981 97.7504
19 10 1 99.9037 101.855 98.719
20 10 1 100.331 102.602 99.5348
21 11 1 97.3249 100.32 99.3111
22 11 1 97.2128 100.457 98.1242
23 12 1 102.703 102.057 100.292
24 12 1 103.04 97.3388 100.404
25 13 1 100.881 101.186 102.059
26 13 1 100.789 100.342 101.235
27 14 1 101.287 100.617 98.1509
28 14 1 100.885 101.237 97.2432
29 15 1 99.814 97.6381 98.5602
30 15 1 99.1955 102.72 99.0367
31 16 1 100.371 101.094 99.3129
32 16 1 100.782 101.522 98.2907
33 17 1 99.3385 99.6008 98.8896
34 17 1 99.4377 99.7739 97.7073
35 18 1 99.9827 100.166 99.5159
36 18 1 99.3867 100.938 98.8686
37 19 1 97.3899 101.402 98.678
38 19 1 98.3409 102.062 99.2508
39 20 1 98.7889 98.4427 102.67
40 20 1 98.3974 98.2001 101.594
41 21 1 98.6701 100.326 98.2944
42 21 1 98.9532 100.556 97.1235
43 22 1 97.3447 102.389 99.0688
44 22 1 102.962 97.3806 98.6071
45 23 1 99.3361 102.658 101.642
46 23 1 98.325 102.443 100.943
47 24 1 97.6331 98.0673 102.356
48 24 1 97.5685 102.883 102.623
49 25 1 99.3136 101.696 102.062
50 25 1 99.0828 100.531 101.997
51 26 1 100.127 100.103 102.072
52 26 1 100.536 99.2152 102.733
53 27 1 101.078 101.925 99.2224
54 27 1 100.404 101.777 100.236
55 28 1 98.5576 98.993 97.6959
56 28 1 98.8163 97.8308 98.061
57 29 1 97.1513 99.6988 97.3554
58 29 1 102.946 99.2969 98.4322
59 30 1 102.77 99.3777 99.5707
60 30 1 101.854 100.132 99.8446
61 31 1 100.35 98.1001 97.6585
62 31 1 101.008 98.4562 98.6057
63 32 1 101.887 101.582 98.2097
64 32 1 101.893 100.968 97.2193
65 33 1 102.596 99.8295 100.563
66 33 1 97.4679 99.7446 101.168
67 34 1 97.8278 99.9629 102.327
68 34 1 98.0319 100.632 101.343
69 35 1 100.096 97.1966 102.252
70 35 1 100.484 98.1512 101.531
71 36 1 98.3634 99.8755 99.3035
72 36 1 98.0021 100.633 100.146
73 37 1 97.5829 101.823 102.961
74 37 1 97.4601 101.529 101.845
75 38 1 98.5285 101.547 101.408
76 38 1 98.2309 101.143 102.489
77 39 1 101.817 98.6644 101.498
78 39 1 102.045 99.8373 101.652
79 40 1 100.174 98.9938 100.96
80 40 1 101.193 98.4663 100.595
81 41 1 98.5995 97.3992 102.414
82 41 1 99.3832 102.499 102.8
83 42 1 103 98.9605 101.027
84 42 1 102.767 98.4107 102.062
85 43 1 99.0375 100.547 99.8109
86 43 1 98.4756 99.7374 100.496
87 44 1 98.3849 102.673 97.3286
88 44 1 99.3464 102.639 97.9561
89 45 1 101.329 97.6012 101.207
90 45 1 100.761 97.5362 100.19
91 46 1 101.986 99.2259 102.627
92 46 1 102.041 98.0934 97.0539
93 47 1 100.219 98.2005 102.556
94 47 1 99.4028 97.5731 97.2083
95 48 1 98.3136 101.004 99.1081
96 48 1 98.8613 101.756 98.3253
97 49 1 101.261 102.252 97.577
98 49 1 102.011 102.812 102.691