LAMMPS (23 Jun 2022)
OMP_NUM_THREADS environment is not set. Defaulting to 1 thread. (src/comm.cpp:98)
  using 1 OpenMP thread(s) per MPI task
Reading data file ...
  orthogonal box = (96.919553 96.919553 96.919553) to (103.08045 103.08045 103.08045)
  2 by 2 by 3 MPI processor grid
  reading atoms ...
  200 atoms
  scanning bonds ...
  4 = max bonds/atom
  reading bonds ...
  224 bonds
Finding 1-2 1-3 1-4 neighbors ...
  special bond factors lj:    0        0        0       
  special bond factors coul:  0        0        0       
     4 = max # of 1-2 neighbors
     4 = max # of 1-3 neighbors
    10 = max # of 1-4 neighbors
    12 = max # of special neighbors
  special bonds CPU = 0.001 seconds
  read_data CPU = 0.006 seconds
Finding 1-2 1-3 1-4 neighbors ...
  special bond factors lj:    0        1        1       
  special bond factors coul:  0        0        0       
     4 = max # of 1-2 neighbors
     4 = max # of 1-3 neighbors
    10 = max # of 1-4 neighbors
    12 = max # of special neighbors
  special bonds CPU = 0.000 seconds
Generated 0 of 1 mixed pair_coeff terms from geometric mixing rule
Neighbor list info ...
  update every 1 steps, delay 0 steps, check yes
  max neighbors/atom: 2000, page size: 100000
  master list distance cutoff = 5.5
  ghost atom cutoff = 5.5
  binsize = 2.75, bins = 3 3 3
  1 neighbor lists, perpetual/occasional/extra = 1 0 0
  (1) pair lj/cut, perpetual
      attributes: half, newton on
      pair build: half/bin/newton
      stencil: half/bin/3d
      bin: standard
WARNING: Proc sub-domain size < neighbor skin, could lead to lost atoms (src/domain.cpp:970)
Setting up Verlet run ...
  Unit style    : lj
  Current step  : 0
  Time step     : 0.002
WARNING: Inconsistent image flags (src/domain.cpp:819)
Per MPI rank memory allocation (min/avg/max) = 8.434 | 8.436 | 8.438 Mbytes
   Step          Temp         Density         PotEng        Enthalpy        Press           Pxx            Pyy            Pzz            Pxy            Pxz            Pyz             Lx             Ly             Lz             Xy             Yz             Xz          Density    
         0   1.5            0.94078749    -4.2082643      1.0106456      2.5488156      2.5367277      2.6947238      2.4149953     -0.40125548    -0.68717975    -0.019009543    6.1608937      6.1608937      6.1608937      0              0              0              0.94078749   
      1000   1.4942553      0.80624821    -3.0186014      0.43864217     0.89938267     1.1600837      0.57012091     0.96794337     0.097060039   -0.12714988     0.20202734     6.4861149      6.4861149      6.4861149      0              0              0              0.80624821   
      2000   1.4366062      0.77536309    -2.6548492      0.60144744     0.78393572     0.77334254     1.8066721     -0.22820748    -0.036627112    0.061161078   -0.53361188     6.5711168      6.5711168      6.5711168      0              0              0              0.77536309   
      3000   1.6310879      0.81423464    -2.7924866      2.2072517      1.8988985      2.254906       1.3557599      2.0860298     -0.018900406   -1.1920194     -0.0929499      6.4648388      6.4648388      6.4648388      0              0              0              0.81423464   
      4000   1.520912       0.78699412    -2.8826177      0.74591415     0.97198828     1.6089869      0.68217538     0.62480256     0.035731717    0.64741871    -0.77446444     6.5385844      6.5385844      6.5385844      0              0              0              0.78699412   
      5000   1.4211957      0.78938336    -2.8663336      0.77844463     1.093399       0.92015606     1.6921831      0.66785795    -0.12357684     0.14893992     0.14047837     6.5319809      6.5319809      6.5319809      0              0              0              0.78938336   
      6000   1.3939438      0.82063268    -3.1461113     -0.0019216506   0.79357314     1.0942188      0.6613414      0.62515924    -0.077362095    0.30070436    -0.49940846     6.447994       6.447994       6.447994       0              0              0              0.82063268   
      7000   1.2678102      0.78340747    -2.712954      -0.023606251    0.56771478     0.23386371     0.83464531     0.63463533     0.19923497     0.055256095   -0.045493563    6.5485476      6.5485476      6.5485476      0              0              0              0.78340747   
      8000   1.4008481      0.78886279    -2.819532       0.49369402     0.8766849      1.6478082      1.1952651     -0.21301862     0.078503356    0.27653659    -0.30163445     6.5334174      6.5334174      6.5334174      0              0              0              0.78886279   
      9000   1.2937599      0.82310024    -3.0349054      0.79852273     1.4235829      1.0596414      1.2073129      2.0037945      0.13336335    -0.30745466     0.051688037    6.4415441      6.4415441      6.4415441      0              0              0              0.82310024   
     10000   1.3505242      0.78848882    -2.8538025      1.2062281      1.4654232      1.3329847      1.5643561      1.4989288     -0.16568692     0.57530454    -0.09818282     6.5344501      6.5344501      6.5344501      0              0              0              0.78848882   
     11000   1.3509577      0.78402799    -2.782637      -0.2864795      0.34201656     0.15106603     0.31044461     0.56453905    -0.21623831     0.33094473     0.12561446     6.5468196      6.5468196      6.5468196      0              0              0              0.78402799   
     12000   1.3238593      0.84421541    -3.1420586      2.0945816      2.5025463      3.1313599      1.5251808      2.8510981     -0.45306438    -0.27222613    -0.36240782     6.3873856      6.3873856      6.3873856      0              0              0              0.84421541   
     13000   1.3349628      0.82754474    -3.0033641      1.0144838      1.5237474      1.565432       1.5639176      1.4418927      0.363222      -1.0824263      0.12282585     6.4299915      6.4299915      6.4299915      0              0              0              0.82754474   
     14000   1.3846829      0.78882647    -2.9656054     -0.3962307      0.36051916     0.15219078     0.44120714     0.48815955    -0.70792115    -0.19802273    -0.35529777     6.5335176      6.5335176      6.5335176      0              0              0              0.78882647   
     15000   1.4043165      0.81815673    -2.90914        0.94052214     1.3043797      2.0212257      0.99898228     0.89293106    -0.33616087     0.25365507     0.13027624     6.4544919      6.4544919      6.4544919      0              0              0              0.81815673   
     16000   1.2470472      0.83297869    -3.0453681      0.12087446     0.98823426     1.1339482      0.98349654     0.84725803     0.082951569    0.34886606     0.38734214     6.4159789      6.4159789      6.4159789      0              0              0              0.83297869   
     17000   1.2444226      0.78909732    -3.0668186     -0.3765337      0.59755055     0.70505173     0.47256527     0.61503467    -0.14131979     0.14504627     0.13857391     6.53277        6.53277        6.53277        0              0              0              0.78909732   
     18000   1.3745341      0.83370055    -3.1306482      0.14614835     0.92867004     0.65133169     0.57680112     1.5578773     -0.060559085    0.0022705681  -0.94435285     6.4141267      6.4141267      6.4141267      0              0              0              0.83370055   
     19000   1.3287141      0.8306312     -3.2171809     -0.042103147    0.90008104     0.93543858     1.5125183      0.25228626    -0.044054986    0.66195442     0.54354283     6.4220174      6.4220174      6.4220174      0              0              0              0.8306312    
     20000   1.2347545      0.81128861    -3.1215436     -0.78812975     0.3617925      0.15566187     1.0806179     -0.15090225     0.16354906    -0.36845087     0.0091283683   6.4726546      6.4726546      6.4726546      0              0              0              0.81128861   
     21000   1.2263321      0.81619719    -2.9796069     -0.58834937     0.4162285      0.93623435     0.38233917    -0.069888027    0.56692934    -0.12822566     0.059773543    6.4596531      6.4596531      6.4596531      0              0              0              0.81619719   
     22000   1.3039431      0.84535605    -3.2189454      0.62400485     1.4577128      1.0569607      1.8240226      1.4921552     -0.56992087    -0.092512188   -0.89206508     6.3845115      6.3845115      6.3845115      0              0              0              0.84535605   
     23000   1.3355277      0.84832726    -3.3148592      0.15696284     1.1402652      1.4991424      1.5457449      0.37590832    -0.59042298     0.56982082    -0.7153823      6.377049       6.377049       6.377049       0              0              0              0.84832726   
     24000   1.2526957      0.83241158    -3.2826075     -0.11159017     0.98479511     1.1424028      1.417581       0.39440154     0.011646712   -0.076925333    0.12278034     6.4174357      6.4174357      6.4174357      0              0              0              0.83241158   
     25000   1.2589074      0.83058687    -3.376203      -1.1238727      0.28195479    -0.47208839     1.673367      -0.35541421    -0.24567434    -0.2778823      0.41468378     6.4221317      6.4221317      6.4221317      0              0              0              0.83058687   
     26000   1.2738176      0.84165375    -3.0797062      1.0090998      1.6738452      1.9348795      1.398205       1.6884513      0.46155378    -0.55862988     0.063874708    6.3938593      6.3938593      6.3938593      0              0              0              0.84165375   
     27000   1.3156372      0.82463509    -3.2751236     -0.79140022     0.38992854     0.57221779     0.37516689     0.22240095    -0.22066131    -0.18538376     0.093785147    6.4375452      6.4375452      6.4375452      0              0              0              0.82463509   
     28000   1.2572203      0.84563252    -3.511139      -0.54528926     0.83752094     1.1100117      0.81842502     0.58412614     0.60785131     0.79070949     0.25388191     6.3838156      6.3838156      6.3838156      0              0              0              0.84563252   
     29000   1.2952749      0.84480376    -3.325131       0.29485205     1.2954568      1.536753       1.3034457      1.0461716      0.69031699    -0.56368337     0.27310121     6.3859025      6.3859025      6.3859025      0              0              0              0.84480376   
     30000   1.1858348      0.83802052    -3.2594299     -0.32367969     0.88821935     0.42238855     1.0187712      1.2234983     -0.39413422     0.28639506    -0.029548043    6.4030861      6.4030861      6.4030861      0              0              0              0.83802052   
     31000   1.1061368      0.86845078    -3.5777367     -0.97382952     0.75239257     1.3457346      0.91624227    -0.0047991343  -0.2855335      0.090225078    0.28130596     6.3274078      6.3274078      6.3274078      0              0              0              0.86845078   
     32000   1.1607912      0.83707676    -3.3091706     -0.026000914    1.1800414      1.3119073      1.7319685      0.49624822     0.34975148     0.41342481     0.23661813     6.4054916      6.4054916      6.4054916      0              0              0              0.83707676   
     33000   1.193566       0.82583702    -3.2763528     -0.50516852     0.74309338     0.512818       0.84787399     0.86858815     0.089304468    0.34002859     0.13265342     6.4344206      6.4344206      6.4344206      0              0              0              0.82583702   
     34000   1.1598742      0.88502438    -3.6779089     -0.044786065    1.5302962      0.9923959      1.7113687      1.8871239      0.022466041    0.67384324     0.21235939     6.2876614      6.2876614      6.2876614      0              0              0              0.88502438   
     35000   1.185521       0.8428384     -3.4158411     -0.74201368     0.69299496     0.85533838     1.0423061      0.18134035    -0.44373089    -0.35509062    -0.72720311     6.3908622      6.3908622      6.3908622      0              0              0              0.8428384    
     36000   1.1874075      0.83087881    -3.3268568      0.031359994    1.1979846      1.9119148      1.0110125      0.67102646     1.0046278     -0.49713144    -0.11804357     6.4213794      6.4213794      6.4213794      0              0              0              0.83087881   
     37000   1.0562276      0.87550143    -3.6230261     -0.61913532     1.1361391      1.5703352      1.3033203      0.53476167     0.023942593    0.35884329    -0.454636       6.3103765      6.3103765      6.3103765      0              0              0              0.87550143   
     38000   1.0637397      0.86927216    -3.4852396     -0.31104868     1.2537744      1.5760415      0.75677445     1.4285073      0.19566049     0.24409261     0.12089688     6.3254142      6.3254142      6.3254142      0              0              0              0.86927216   
     39000   1.2510535      0.8289381     -3.414623      -0.23765457     0.98701741     1.2403931      0.60808952     1.1125696      0.22205242    -0.49104231     0.088596687    6.4263868      6.4263868      6.4263868      0              0              0              0.8289381    
     40000   1.1723217      0.86581657    -3.717132      -0.78999644     0.92677434     0.23173102     1.8760069      0.67258511     0.2273114      0.33908652    -0.0074869276   6.3338182      6.3338182      6.3338182      0              0              0              0.86581657   
     41000   1.0962126      0.88385661    -3.7756446     -0.48268959     1.3312951      1.7625063      1.4376959      0.79368327     0.35114339    -0.17729169     0.3504321      6.2904293      6.2904293      6.2904293      0              0              0              0.88385661   
     42000   1.0995429      0.85223065    -3.6609394     -1.2346391      0.60836298     0.88764821     0.79211007     0.14533067     0.25627955    -0.30507034    -0.37352441     6.367298       6.367298       6.367298       0              0              0              0.85223065   
     43000   1.1426003      0.87946854    -3.5950966     -0.030287758    1.4866839      2.3846128      1.894075       0.18136402     0.53859374     0.34626739     0.47431867     6.3008739      6.3008739      6.3008739      0              0              0              0.87946854   
     44000   1.0887856      0.86562036    -3.4556803      0.047451663    1.477944       2.1657776      1.0477181      1.2203362      0.63903187    -0.15295053     0.43627554     6.3342968      6.3342968      6.3342968      0              0              0              0.86562036   
     45000   1.0219975      0.85119447    -3.5564015     -1.2664521      0.59167159     0.61991496     0.7342552      0.42084461    -0.047679721   -0.32930507    -0.63600714     6.3698807      6.3698807      6.3698807      0              0              0              0.85119447   
     46000   1.0152104      0.90169079    -3.8178584     -0.066498023    1.8330217      1.3486913      1.6965997      2.4537741      0.11808901    -0.059228773   -0.20212242     6.2486809      6.2486809      6.2486809      0              0              0              0.90169079   
     47000   0.98460422     0.87724459    -3.8905452     -2.4483873     -0.021822607   -0.48385283     0.60110445    -0.18271944     0.26192549    -0.35845514    -0.095120913    6.306194       6.306194       6.306194       0              0              0              0.87724459   
     48000   1.0822064      0.9014384     -4.0001526     -0.57384799     1.4841869      1.5461691      1.6479061      1.2584855     -0.068902104    0.27598845    -0.59517821     6.2492641      6.2492641      6.2492641      0              0              0              0.9014384    
     49000   0.99768114     0.88610915    -3.6972998     -0.55252673     1.3337828      1.16778        1.3110994      1.5224689      0.036619434    0.34412004    -0.12248664     6.2850946      6.2850946      6.2850946      0              0              0              0.88610915   
     50000   0.93499045     0.8892918     -3.799954      -0.18489405     1.7944184      1.7469237      1.9441994      1.6921322      0.30632306    -0.64836276     0.38061766     6.2775878      6.2775878      6.2775878      0              0              0              0.8892918    
     51000   0.94182392     0.86202015    -3.7885164     -2.0052146      0.29593124     0.2059868      0.53419538     0.14761155     0.43188853    -1.1001037     -0.30837126     6.3431029      6.3431029      6.3431029      0              0              0              0.86202015   
     52000   1.0335505      0.89732627    -3.9308436     -1.27314        0.90966812     0.67502241     1.2340434      0.81993857    -0.27724087    -0.0055973694  -0.82039812     6.2587956      6.2587956      6.2587956      0              0              0              0.89732627   
     53000   0.98012259     0.88314765    -3.8731625     -1.0188198      1.1171896      1.275036       0.81529806     1.2612349      0.38715249     0.13023278     0.1869835      6.2921122      6.2921122      6.2921122      0              0              0              0.88314765   
     54000   0.97260155     0.88549769    -4.0193507     -1.8725027      0.55966687     1.1278605      0.20952893     0.34161119     0.2517142     -0.095638748    0.56874869     6.286541       6.286541       6.286541       0              0              0              0.88549769   
     55000   0.89073015     0.90761686    -4.0738254     -2.3771167      0.30305656     0.55941124     1.1817929     -0.83203444    -0.11447578     0.23911906     0.1670099      6.2350515      6.2350515      6.2350515      0              0              0              0.90761686   
     56000   1.0081824      0.91589868    -4.0499553     -0.90840707     1.3628872      1.3325302      1.3537542      1.4023771      0.26720951    -0.23765049    -0.076595473    6.2162015      6.2162015      6.2162015      0              0              0              0.91589868   
     57000   0.94777987     0.8880623     -3.8269641     -0.54686352     1.5061045      1.6559037      1.6748577      1.1875521      0.48422708     0.50874244     0.23029656     6.2804835      6.2804835      6.2804835      0              0              0              0.8880623    
     58000   0.81126663     0.89243036    -3.9333778     -1.5058956      0.98708216     0.86853107     1.1585305      0.93418487     0.00028957567 -0.29494853    -0.17015137     6.27022        6.27022        6.27022        0              0              0              0.89243036   
     59000   0.93596734     0.90851781    -4.0895474     -1.7465314      0.78139526     0.56561171     0.82963322     0.94894086     0.24162044     0.14674294     0.2746698      6.2329897      6.2329897      6.2329897      0              0              0              0.90851781   
     60000   0.97607622     0.91746635    -4.1331551     -0.95216647     1.4380825      1.1808267      1.8169138      1.3165071      0.48008298    -0.59253731     0.45227916     6.2126589      6.2126589      6.2126589      0              0              0              0.91746635   
     61000   0.9131162      0.89870784    -4.0279757     -1.1060826      1.273769       0.95406434     1.461665       1.4055775      0.10077581     0.18446785     0.010249163    6.2555867      6.2555867      6.2555867      0              0              0              0.89870784   
     62000   0.84958814     0.89517056    -4.0816406     -1.2651706      1.2601232      1.2664117      1.1039556      1.4100023     -0.10846009    -0.26122089    -0.74726052     6.2638156      6.2638156      6.2638156      0              0              0              0.89517056   
     63000   0.86178583     0.9090465     -4.0086807     -1.4585353      1.0445193      1.1359406      0.59927108     1.3983462      0.78065693    -0.21421385     0.36237901     6.2317812      6.2317812      6.2317812      0              0              0              0.9090465    
     64000   0.97932688     0.90883288    -4.1512949     -1.6661262      0.84564694     0.79684367     0.50411082     1.2359863     -0.32441907     0.81666849     0.17918295     6.2322694      6.2322694      6.2322694      0              0              0              0.90883288   
     65000   0.83725467     0.9281905     -4.1835787     -1.3316463      1.3520612      1.0215269      1.5945504      1.4401063      0.17898822     0.60545949     0.050489233    6.1886395      6.1886395      6.1886395      0              0              0              0.9281905    
     66000   0.87392426     0.94178058    -4.382835      -1.4416248      1.4014365      2.3569675      0.55743566     1.2899063      0.22194793    -0.10772176    -0.035416819    6.1587274      6.1587274      6.1587274      0              0              0              0.94178058   
     67000   0.88264552     0.90799237    -4.26473       -2.1628465      0.64759261     0.72678353     0.44882187     0.76717241    -0.044137754   -0.43288223    -0.34320383     6.2341918      6.2341918      6.2341918      0              0              0              0.90799237   
     68000   0.86263208     0.89956632    -4.1663638     -2.7516342      0.10406452    -0.0026790489   0.58352658    -0.26865397     0.81932558     0.03338102    -0.79728603     6.2535961      6.2535961      6.2535961      0              0              0              0.89956632   
     69000   0.77862425     0.93520347    -4.3354603     -2.2680687      0.76966809     1.1337837      0.86482491     0.3103957     -0.065886561    0.93076571    -0.60596897     6.1731314      6.1731314      6.1731314      0              0              0              0.93520347   
     70000   0.7682905      0.92814909    -4.2866527     -1.8287715      1.1063601      0.85634816     1.4388452      1.023887       0.49157973    -0.42048515     0.18136203     6.1887316      6.1887316      6.1887316      0              0              0              0.92814909   
     71000   0.86036021     0.95289216    -4.3891353     -1.3933617      1.4827747      1.837043       1.2982059      1.3130752      0.38470756    -0.068982874    0.17850174     6.134695       6.134695       6.134695       0              0              0              0.95289216   
     72000   0.7984034      0.92466967    -4.2816917     -2.3118523      0.65418058     0.6765652      0.23647764     1.0494989      0.22804526    -0.46308134     0.42426768     6.1964843      6.1964843      6.1964843      0              0              0              0.92466967   
     73000   0.79126512     0.93345319    -4.4039247     -2.5058223      0.60855987     0.42708703     1.007352       0.39124059     0.26884083     0.0025268044  -5.2192691e-07  6.1769874      6.1769874      6.1769874      0              0              0              0.93345319   
     74000   0.76847187     0.94965372    -4.2850222     -1.6595656      1.2764316      2.1797029      0.58655839     1.0630335      0.19027882    -0.31434503    -0.16869645     6.1416604      6.1416604      6.1416604      0              0              0              0.94965372   
     75000   0.71432911     0.94595802    -4.3687629     -1.7360621      1.3471858      1.3712713      1.4164357      1.2538502      0.037369088    0.24115088    -0.058596101    6.1496482      6.1496482      6.1496482      0              0              0              0.94595802   
     76000   0.74507393     0.94565958    -4.5118931     -2.59911        0.68840603     0.56648595     1.2107571      0.28797501    -0.3444048     -0.09412737    -0.1345149      6.1502951      6.1502951      6.1502951      0              0              0              0.94565958   
     77000   0.71439644     0.93314351    -4.4500608     -3.1093359      0.23285174    -0.75335722     0.8188659      0.63304654     0.58043008    -0.60461257    -0.86764888     6.1776706      6.1776706      6.1776706      0              0              0              0.93314351   
     78000   0.76524736     0.96182902    -4.5589665     -1.4815141      1.6922251      1.4139841      2.0744389      1.5882524     -0.032634297    0.010335501   -0.12331702     6.1156356      6.1156356      6.1156356      0              0              0              0.96182902   
     79000   0.73884294     0.95093901    -4.5304901     -2.1327821      1.1195015      1.5606115      0.99183115     0.80606183     0.37400113    -0.18723477    -0.11254498     6.1388922      6.1388922      6.1388922      0              0              0              0.95093901   
     80000   0.71733407     0.94831507    -4.5606483     -2.4682726      0.88085933     1.2782514      0.57929606     0.78503048     0.40429711    -0.18332585    -0.081405295    6.144549       6.144549       6.144549       0              0              0              0.94831507   
     81000   0.64519176     0.96307893    -4.653409      -2.1402789      1.3572245      1.3903983      1.3021712      1.3791041      0.073354408    0.13578486    -0.50260372     6.1129888      6.1129888      6.1129888      0              0              0              0.96307893   
     82000   0.68070224     0.94877889    -4.6130099     -2.8080715      0.68052493     0.58590723     0.88546333     0.57020423     0.50551198    -0.04584544    -0.26656054     6.1435475      6.1435475      6.1435475      0              0              0              0.94877889   
     83000   0.66141602     0.97249222    -4.7539454     -2.4133378      1.1965581      1.3960689      1.7945974      0.39900804    -0.05083036     0.16240778     0.0804263      6.0932011      6.0932011      6.0932011      0              0              0              0.97249222   
     84000   0.70501712     0.95594866    -4.6402454     -2.331601       1.0918727      1.6184469      1.1269826      0.53018863     0.13038252    -0.45117667     0.25286337     6.1281498      6.1281498      6.1281498      0              0              0              0.95594866   
     85000   0.62927443     0.97350042    -4.7537395     -2.5359665      1.1315446      0.8666627      1.2215589      1.3064121      0.27119092    -0.30407401    -0.62599459     6.091097       6.091097       6.091097       0              0              0              0.97350042   
     86000   0.64036153     0.9446241     -4.5855001     -2.7845239      0.72584629    -0.1174022      0.99974645     1.2951946     -0.16147669    -0.50630766    -0.053509934    6.1525415      6.1525415      6.1525415      0              0              0              0.9446241    
     87000   0.62013417     0.98488957    -4.7608984     -2.0361841      1.610889       1.9811611      1.9175901      0.93391578     0.4769749     -0.037413593    0.020544168    6.067527       6.067527       6.067527       0              0              0              0.98488957   
     88000   0.70252772     0.9578774     -4.7197259     -2.7078672      0.83887077     1.0580332      0.64094138     0.81763771    -0.1317852     -0.25784657    -0.26201989     6.1240339      6.1240339      6.1240339      0              0              0              0.9578774    
     89000   0.56381752     0.98702666    -4.8190878     -2.9072612      0.96040288     0.17532895     2.0044233      0.70145642    -0.34334875     0.018430216   -0.24109624     6.0631447      6.0631447      6.0631447      0              0              0              0.98702666   
     90000   0.61550627     0.98522001    -4.8485943     -2.7138755      1.0891837      1.2707675      1.2144041      0.78237968    -0.57055562     0.20744398    -0.48752877     6.0668485      6.0668485      6.0668485      0              0              0              0.98522001   
     91000   0.51702839     0.97441794    -4.8361095     -3.3919033      0.59576029     1.2096809     -0.18260492     0.76020489    -0.094026019    0.20604087    -0.26953586     6.0891845      6.0891845      6.0891845      0              0              0              0.97441794   
     92000   0.51156647     0.97440982    -4.7918162     -3.2466533      0.69240672     0.91838992     0.52165646     0.63717378     0.50406602     0.0053315409   0.093630834    6.0892015      6.0892015      6.0892015      0              0              0              0.97440982   
     93000   0.54277908     0.9820888     -4.7586051     -2.785657       1.0382021      0.68534369     1.0868209      1.3424417      0.29420685     0.14433592     0.11780707     6.0732894      6.0732894      6.0732894      0              0              0              0.9820888    
     94000   0.55828606     0.99001129    -4.8816752     -2.4217502      1.4640314      1.363194       1.011677       2.0172233     -0.56638696     0.25514952    -0.085073856    6.0570456      6.0570456      6.0570456      0              0              0              0.99001129   
     95000   0.58878116     0.9858015     -4.9239984     -2.2975159      1.5662832      0.85134799     1.9247397      1.9227619     -0.15868613     0.32688044     0.28535832     6.0656554      6.0656554      6.0656554      0              0              0              0.9858015    
     96000   0.57562766     1.000713      -5.0167053     -2.1438925      1.8319311      1.9151581      1.2050099      2.3756254     -0.16379825    -0.066284254    0.24134088     6.0353767      6.0353767      6.0353767      0              0              0              1.000713     
     97000   0.49113681     0.97245641    -4.9674924     -3.7073491      0.46600261     0.94697828     0.047633868    0.40339568     0.12199488    -0.47126019    -0.14754857     6.0932759      6.0932759      6.0932759      0              0              0              0.97245641   
     98000   0.51927517     0.99700305    -4.9747235     -2.5213547      1.5212006      1.2702337      1.4257713      1.8675968      0.32852557    -0.15156097    -0.1163628      6.0428535      6.0428535      6.0428535      0              0              0              0.99700305   
     99000   0.54413496     0.98867273    -4.9280495     -3.1394222      0.87767699     0.77316895     0.84928294     1.0105791      0.10095526    -0.22779386    -0.082685792    6.0597779      6.0597779      6.0597779      0              0              0              0.98867273   
    100000   0.48006789     0.99741008    -5.0318887     -3.1011844      1.1009621      1.242713       0.45210336     1.6080699      0.46673954    -0.0091612664   0.17123493     6.0420314      6.0420314      6.0420314      0              0              0              0.99741008   
    101000   0.52028245     0.98744871    -5.0048263     -3.4340417      0.71299456     1.6901741      0.11770682     0.33110281     0.29638831     0.024709005   -0.36150257     6.0622808      6.0622808      6.0622808      0              0              0              0.98744871   
    102000   0.45284639     1.0019999     -5.0036512     -2.9835494      1.2244699      1.8185953      0.58840321     1.2664111      0.0045877999   0.49191074     0.092295651    6.0327918      6.0327918      6.0327918      0              0              0              1.0019999    
    103000   0.47885887     0.98964689    -5.0491277     -3.3620585      0.87482296     1.6236197      0.034276332    0.96657286    -0.39381824     0.460687      -0.55049023     6.057789       6.057789       6.057789       0              0              0              0.98964689   
    104000   0.4521284      1.0033173     -5.151113      -3.7637174      0.64996165     1.0416275      0.39434877     0.51390863     0.041561802    0.20488065    -0.31115116     6.0301502      6.0301502      6.0301502      0              0              0              1.0033173    
    105000   0.4484676      1.0024059     -5.1270902     -3.3208867      1.0360007      0.54117561     0.8353648      1.7314617     -0.082926825   -0.19274789     0.43263653     6.0319772      6.0319772      6.0319772      0              0              0              1.0024059    
    106000   0.42620762     1.0065299     -5.184854      -3.9227217      0.57282301     0.79523893    -0.1224882      1.0457183      0.23153159     0.2420101     -0.14431347     6.0237278      6.0237278      6.0237278      0              0              0              1.0065299    
    107000   0.44869255     1.0153768     -5.1762368     -3.1183848      1.2813856      1.2656493      0.34386506     2.2346423     -0.098610766    0.35870741    -0.23956823     6.006182       6.006182       6.006182       0              0              0              1.0153768    
    108000   0.40881489     1.014117      -5.2057011     -3.5042629      1.0060797      1.0246332      0.58383097     1.4097748      0.20659454     0.079270514   -0.30376859     6.0086679      6.0086679      6.0086679      0              0              0              1.014117     
    109000   0.39657793     1.0023312     -5.213384      -4.0745329      0.4983941      0.31064104     0.57863706     0.60590419     0.14941795     0.54906296    -0.19046004     6.0321271      6.0321271      6.0321271      0              0              0              1.0023312    
    110000   0.40565042     1.0104221     -5.2407359     -4.010596       0.57383402     0.48277787    -0.037161802    1.275886      -0.10780516     0.26714892    -0.22657147     6.0159832      6.0159832      6.0159832      0              0              0              1.0104221    
    111000   0.36653413     1.0150421     -5.3024821     -3.7063564      0.96804893     0.60974148     0.98643022     1.3079751     -0.25476899    -0.16795624     0.22478734     6.0068419      6.0068419      6.0068419      0              0              0              1.0150421    
    112000   0.38242905     1.0130621     -5.2251641     -3.2395719      1.3029976      1.4037937      0.93239448     1.5728045      0.00053730873 -0.20189136    -0.37680669     6.0107528      6.0107528      6.0107528      0              0              0              1.0130621    
    113000   0.39087304     1.0275825     -5.3176116     -3.1800387      1.4518758      1.2344616      1.1268563      1.9943095     -0.05892981    -0.30660795    -0.13971498     5.9823066      5.9823066      5.9823066      0              0              0              1.0275825    
    114000   0.37010192     1.0038866     -5.2986026     -4.2270093      0.47384927     0.098408773    0.36484153     0.9582975      0.19026729     0.016858663   -0.13404709     6.0290101      6.0290101      6.0290101      0              0              0              1.0038866    
    115000   0.31259655     1.0233108     -5.3530196     -3.8626571      0.95243455     0.80040791     0.67631637     1.3805794     -0.011583939    0.069029519    0.16279598     5.9906192      5.9906192      5.9906192      0              0              0              1.0233108    
    116000   0.35578426     1.0255444     -5.327514      -3.2406469      1.4505478      1.5679685      1.0988732      1.6848016      0.081009792   -0.5352625      0.30295256     5.9862668      5.9862668      5.9862668      0              0              0              1.0255444    
    117000   0.32624017     1.0219635     -5.3280482     -3.4585082      1.2845399      1.04841        1.3910957      1.4141141      0.12116166    -0.247423      -0.23212786     5.9932506      5.9932506      5.9932506      0              0              0              1.0219635    
    118000   0.29865975     1.0191763     -5.3511845     -4.3224133      0.54018338     0.81187469     0.18539344     0.62328202     0.19057902     0.017865026   -0.071385511    5.9987089      5.9987089      5.9987089      0              0              0              1.0191763    
    119000   0.30734469     1.0264273     -5.3796286     -3.6743551      1.1631863      1.4165541      0.61680425     1.4562004     -0.47757535    -0.33843577    -0.15470802     5.9845499      5.9845499      5.9845499      0              0              0              1.0264273    
    120000   0.29429797     1.0217687     -5.3715863     -4.1533351      0.72360867     0.58772746     0.42766381     1.1554348      0.057736534   -0.022796869   -0.092177691    5.9936313      5.9936313      5.9936313      0              0              0              1.0217687    
    121000   0.2688267      1.0277251     -5.4170561     -3.9399132      1.0052263      0.86020525     0.53724815     1.6182256     -0.26143671    -0.40671558    -0.01258572     5.9820299      5.9820299      5.9820299      0              0              0              1.0277251    
    122000   0.28208555     1.0207066     -5.4129825     -3.979501       0.93948498     0.84917087     0.69031233     1.2789718      0.12802821    -0.218278      -0.16781849     5.9957096      5.9957096      5.9957096      0              0              0              1.0207066    
    123000   0.25022256     1.031244      -5.4690641     -3.7428817      1.2681725      1.0313292      1.2782773      1.4949109     -0.35902068    -0.079254467   -0.18808874     5.975218       5.975218       5.975218       0              0              0              1.031244     
    124000   0.26535104     1.0311067     -5.4502695     -3.9860191      1.0013115      1.1061568      0.97513782     0.92263988     0.029474658   -0.22678841    -0.075676839    5.975483       5.975483       5.975483       0              0              0              1.0311067    
    125000   0.24881275     1.0314332     -5.479029      -4.2644569      0.79065828     0.665727       0.67924165     1.0270062      0.1429714     -0.28812643    -0.15847774     5.9748526      5.9748526      5.9748526      0              0              0              1.0314332    
    126000   0.21635862     1.0283728     -5.4993353     -4.2108858      0.90266279     0.38492943     1.1073671      1.2156919     -0.48860324     0.16059969    -0.036922589    5.9807737      5.9807737      5.9807737      0              0              0              1.0283728    
    127000   0.24807401     1.0336373     -5.5154657     -4.3453882      0.75157375     0.085512729    0.85466587     1.3145426     -0.056077191   -0.0059327402   0.048885098    5.9706026      5.9706026      5.9706026      0              0              0              1.0336373    
    128000   0.26493925     1.0422932     -5.527708      -3.7509455      1.3088747      1.1397809      1.0072788      1.7795643     -0.021479842    0.1871179     -0.033568068    5.9540286      5.9540286      5.9540286      0              0              0              1.0422932    
    129000   0.18647786     1.0323061     -5.5070705     -4.258734       0.91032345     0.72988189     0.80467249     1.196416       0.10757472     0.24105397    -0.12519249     5.9731679      5.9731679      5.9731679      0              0              0              1.0323061    
    130000   0.18963797     1.0344198     -5.5716538     -4.7052745      0.54856655     0.13549496     0.44154485     1.0686598     -0.0032150501   0.1231469     -0.25012111     5.9690967      5.9690967      5.9690967      0              0              0              1.0344198    
    131000   0.1869254      1.0424504     -5.5548982     -3.8857936      1.3173905      0.7627617      1.2225047      1.966905      -0.31497333    -0.12909991    -0.083572056    5.9537294      5.9537294      5.9537294      0              0              0              1.0424504    
    132000   0.18811149     1.0420037     -5.5832785     -4.1071564      1.1323414      1.0761828      0.79983623     1.5210052      0.12060304     0.61046617    -0.29237707     5.95458        5.95458        5.95458        0              0              0              1.0420037    
    133000   0.1644705      1.0405826     -5.6018812     -4.3735729      0.92974741     0.82489894     0.73978732     1.224556       0.25460434     0.036806999    0.10457097     5.9572896      5.9572896      5.9572896      0              0              0              1.0405826    
    134000   0.15467059     1.0323845     -5.6112478     -4.9414487      0.41197138     0.18358131     0.36319303     0.68913979     0.049734239   -0.065095857   -0.093235231    5.9730169      5.9730169      5.9730169      0              0              0              1.0323845    
    135000   0.14260835     1.0497374     -5.6328383     -4.2255007      1.1399143      0.53509866     1.0217678      1.8628764      0.080842433   -0.16991223    -0.14814604     5.9399211      5.9399211      5.9399211      0              0              0              1.0497374    
    136000   0.14034626     1.0455267     -5.6253866     -4.192546       1.1627909      0.8779876      0.89978648     1.7105987     -0.23176559     0.19591693    -0.067734138    5.9478844      5.9478844      5.9478844      0              0              0              1.0455267    
    137000   0.12405631     1.0400098     -5.6623834     -4.820157       0.6212379      0.48265817     0.29761271     1.0834428      0.043145272    0.24528201    -0.096139327    5.9583831      5.9583831      5.9583831      0              0              0              1.0400098    
    138000   0.12094709     1.0474714     -5.6615762     -4.2818566      1.14194        0.66345051     1.1073551      1.6550144     -0.25231077     0.09036194     0.25891757     5.9442013      5.9442013      5.9442013      0              0              0              1.0474714    
    139000   0.11035514     1.0532255     -5.6924575     -4.1277852      1.3404374      0.94629884     1.1967092      1.8783043      0.061114565    0.085583524   -0.14397578     5.9333565      5.9333565      5.9333565      0              0              0              1.0532255    
    140000   0.10955742     1.046768      -5.7138141     -4.8015215      0.71254276     0.43523931     0.51738535     1.1850036      0.072861904    0.18065303    -0.086107502    5.9455323      5.9455323      5.9455323      0              0              0              1.046768     
Loop time of 15.5571 on 12 procs for 140000 steps with 200 atoms

Performance: 1555049.360 tau/day, 8999.128 timesteps/s
81.3% CPU use with 12 MPI tasks x 1 OpenMP threads

MPI task timing breakdown:
Section |  min time  |  avg time  |  max time  |%varavg| %total
---------------------------------------------------------------
Pair    | 2.8976     | 3.1602     | 3.4352     |  10.6 | 20.31
Bond    | 0.057666   | 0.065744   | 0.074726   |   2.0 |  0.42
Neigh   | 0.019575   | 0.019717   | 0.019865   |   0.1 |  0.13
Comm    | 9.6773     | 9.9711     | 10.253     |   6.8 | 64.09
Output  | 0.014567   | 0.014663   | 0.015482   |   0.2 |  0.09
Modify  | 1.5177     | 1.5741     | 1.6167     |   2.4 | 10.12
Other   |            | 0.7516     |            |       |  4.83

Nlocal:        16.6667 ave          18 max          15 min
Histogram: 1 0 0 3 0 0 7 0 0 1
Nghost:           2261 ave        2308 max        2219 min
Histogram: 1 2 2 1 1 0 1 2 1 1
Neighs:        5151.67 ave        5979 max        4420 min
Histogram: 2 0 2 1 1 2 2 1 0 1

Total # of neighbors = 61820
Ave neighs/atom = 309.1
Ave special neighs/atom = 10.29
Neighbor list builds = 93
Dangerous builds = 0
System init for write_data ...
Generated 0 of 1 mixed pair_coeff terms from geometric mixing rule
WARNING: Proc sub-domain size < neighbor skin, could lead to lost atoms (src/domain.cpp:970)
WARNING: Not all mixed pair coeffs generated from mixing. Use write_data with 'pair ij' option to store all pair coeffs. (src/write_data.cpp:309)
Total wall time: 0:00:15
