Generated by ZY code

200 atoms
2 atom types
222 bonds
2 bond types
0 angles
0 angle types
0 dihedrals
0 dihedral types
0 impropers
0 improper types

89.6389999999999958 110.3909468047876743 xlo xhi
97.1812999999999931 103.1268323037591585 ylo yhi
97.0555999999999983 103.0011323037591637 zlo zhi

Masses

1 1.000
2 1.500

Pair Coeffs

1 1.000000 1.000000
2 1.000000 1.000000

Bond Coeffs

1 100.000000 1.200000
2 100.000000 1.200000

Atoms # full

1 1 1 0.000000 96.851300 98.849500 98.644000 0 1 -1
2 1 1 0.000000 97.675700 98.522200 99.435300 0 1 -1
3 2 1 0.000000 91.971500 99.512800 102.391000 -1 -1 -2
4 2 1 0.000000 92.218800 100.493000 101.710000 -1 -1 -2
5 3 1 0.000000 109.834000 97.373700 99.601400 -1 0 -1
6 3 1 0.000000 109.727000 97.402000 100.810000 1 -2 -1
7 4 1 0.000000 109.123000 102.845000 98.774700 -2 0 0
8 4 1 0.000000 109.852000 102.118000 99.374200 -1 -1 0
9 5 1 0.000000 107.543000 97.461200 100.152000 -2 2 0
10 5 1 0.000000 106.352000 97.679600 100.183000 -3 1 0
11 6 1 0.000000 108.710000 100.014000 101.111000 -1 1 -1
12 6 1 0.000000 109.368000 101.028000 100.931000 -1 1 -1
13 7 1 0.000000 92.178500 101.289000 98.166900 -2 -1 0
14 7 1 0.000000 92.625000 101.321000 97.062100 -2 -1 0
15 8 1 0.000000 90.391600 100.967000 102.087000 3 0 0
16 8 1 0.000000 89.646400 100.253000 101.551000 3 0 0
17 9 1 0.000000 110.282000 99.962000 97.451200 -3 -3 0
18 9 1 0.000000 109.870000 99.477900 102.389000 -2 -4 0
19 10 1 0.000000 92.358600 102.286000 97.671600 -1 -1 0
20 10 1 0.000000 91.686800 102.577000 102.694000 -1 -1 0
21 11 1 0.000000 91.337200 100.660000 97.799100 -1 0 0
22 11 1 0.000000 91.677700 100.822000 102.587000 -1 0 0
23 12 1 0.000000 109.366000 102.472000 100.271000 -4 1 1
24 12 1 0.000000 110.353000 102.466000 100.924000 -1 -1 1
25 13 1 0.000000 107.099000 99.757700 101.878000 -1 0 0
26 13 1 0.000000 106.650000 100.295000 100.889000 -1 0 0
27 14 1 0.000000 109.377000 99.907100 98.142800 -1 -1 1
28 14 1 0.000000 108.927000 99.534200 97.065500 -1 -1 1
29 15 1 0.000000 92.109800 101.689000 102.132000 1 1 1
30 15 1 0.000000 91.605900 101.649000 97.344100 0 1 1
31 16 1 0.000000 92.317400 97.181300 98.351600 -1 -1 -2
32 16 1 0.000000 93.306200 102.821000 97.750400 -1 -1 -2
33 17 1 0.000000 107.264000 98.420600 98.778700 -1 1 0
34 17 1 0.000000 107.921000 97.459200 99.074200 -1 1 0
35 18 1 0.000000 93.630000 101.235000 98.917800 0 -1 0
36 18 1 0.000000 92.794300 102.085000 98.716600 1 -2 0
37 19 1 0.000000 90.605100 101.112000 99.732100 -3 1 0
38 19 1 0.000000 91.733300 101.617000 99.604700 -2 0 0
39 20 1 0.000000 91.981100 98.414100 102.588000 -1 1 0
40 20 1 0.000000 91.244600 97.546100 102.191000 -1 1 0
41 21 1 0.000000 92.880700 100.588000 97.810400 1 0 0
42 21 1 0.000000 93.639300 100.846000 102.908000 1 0 0
43 22 1 0.000000 110.138000 102.587000 98.448300 -2 0 -1
44 22 1 0.000000 109.855000 97.785600 98.407500 -3 1 -1
45 23 1 0.000000 94.211300 101.167000 101.332000 -1 -1 1
46 23 1 0.000000 94.755400 100.113000 101.587000 -1 -1 1
47 24 1 0.000000 90.343500 97.997900 102.570000 -2 3 1
48 24 1 0.000000 91.350800 97.877300 97.289700 -3 3 1
49 25 1 0.000000 95.183400 101.012000 100.929000 -1 0 -2
50 25 1 0.000000 95.351200 99.838200 100.664000 -1 0 -2
51 26 1 0.000000 107.794000 99.605400 97.275000 0 1 -1
52 26 1 0.000000 107.777000 98.420600 97.635500 0 1 -1
53 27 1 0.000000 92.319800 97.379300 97.196800 0 -2 -1
54 27 1 0.000000 91.400300 102.925000 97.847500 0 -2 -1
55 28 1 0.000000 93.234600 100.207000 98.718600 1 -1 0
56 28 1 0.000000 94.360900 100.380000 98.958100 1 -1 0
57 29 1 0.000000 90.951800 99.839200 98.838600 0 1 0
58 29 1 0.000000 89.827900 99.685900 98.500400 -2 2 0
59 30 1 0.000000 108.875000 99.875700 100.109000 -2 0 2
60 30 1 0.000000 109.810000 99.122800 100.203000 -1 -1 2
61 31 1 0.000000 109.353000 97.508800 97.474900 -1 1 -2
62 31 1 0.000000 108.357000 97.775700 102.845000 -1 1 -2
63 32 1 0.000000 110.261000 100.985000 97.774000 0 -2 0
64 32 1 0.000000 109.308000 100.575000 97.158800 0 -2 0
65 33 1 0.000000 109.887000 99.203800 101.326000 0 -2 -1
66 33 1 0.000000 90.249400 99.252100 101.813000 0 -1 -1
67 34 1 0.000000 90.549300 100.740000 101.022000 -2 0 -1
68 34 1 0.000000 90.038400 99.669200 100.666000 -2 0 -1
69 35 1 0.000000 108.404000 98.351500 101.675000 -2 -1 -1
70 35 1 0.000000 107.215000 98.574400 101.947000 -2 -1 -1
71 36 1 0.000000 95.892500 99.248100 99.118400 -1 1 -2
72 36 1 0.000000 96.938100 99.289300 99.626300 -1 1 -2
73 37 1 0.000000 93.884700 99.998100 102.257000 0 -1 -1
74 37 1 0.000000 94.624200 100.917000 102.313000 0 -1 -1
75 38 1 0.000000 93.407500 100.428000 101.256000 1 -1 0
76 38 1 0.000000 93.131700 101.333000 102.066000 0 0 0
77 39 1 0.000000 109.435000 98.206000 101.453000 -2 2 -1
78 39 1 0.000000 108.987000 99.252600 101.888000 -2 2 -1
79 40 1 0.000000 105.967000 98.557100 99.595300 -1 1 0
80 40 1 0.000000 106.249000 99.641900 99.932000 -1 1 0
81 41 1 0.000000 93.560700 98.703000 97.717400 1 2 -1
82 41 1 0.000000 94.758200 98.722200 97.704600 0 2 -1
83 42 1 0.000000 110.255000 98.516000 102.061000 0 0 -1
84 42 1 0.000000 109.822000 97.452100 102.377000 1 -1 -1
85 43 1 0.000000 94.956100 99.722400 99.628800 1 -1 -1
86 43 1 0.000000 95.191900 100.939000 99.714300 1 -1 -1
87 44 1 0.000000 95.238500 102.792000 102.548000 -1 0 1
88 44 1 0.000000 95.377300 97.755300 97.404000 -2 1 1
89 45 1 0.000000 104.920000 98.774400 100.934000 1 0 0
90 45 1 0.000000 104.161000 98.769100 100.070000 1 0 0
91 46 1 0.000000 110.243000 98.016700 97.269300 0 -2 0
92 46 1 0.000000 109.744000 99.035200 97.521700 -1 -1 1
93 47 1 0.000000 93.502900 99.820200 97.339000 1 0 0
94 47 1 0.000000 92.751500 99.361400 98.086300 1 0 1
95 48 1 0.000000 93.441200 100.563000 99.813700 1 0 1
96 48 1 0.000000 92.536700 100.985000 99.124200 1 0 1
97 49 1 0.000000 94.976500 99.330500 98.595100 0 2 0
98 49 1 0.000000 96.005800 99.603200 98.039900 0 2 -1
99 50 1 0.000000 110.185000 102.765000 97.220000 2 0 0
100 50 1 0.000000 89.995200 101.857000 102.578000 1 0 1
101 51 1 0.000000 106.786000 97.823000 101.220000 0 1 0
102 51 1 0.000000 107.748000 98.389900 100.819000 0 1 0
103 52 1 0.000000 89.890500 101.944000 97.739300 0 -1 0
104 52 1 0.000000 109.595000 101.654000 98.293800 1 -2 0
105 53 1 0.000000 92.308700 97.286300 102.018000 0 1 1
106 53 1 0.000000 92.870900 98.368500 101.958000 1 1 1
107 54 1 0.000000 109.269000 98.157100 100.202000 -1 1 1
108 54 1 0.000000 110.307000 98.326800 100.777000 0 0 1
109 55 1 0.000000 91.596700 99.048400 97.483000 0 1 0
110 55 1 0.000000 90.614400 99.716200 97.790100 -1 1 1
111 56 1 0.000000 108.879000 99.005000 99.521300 0 0 0
112 56 1 0.000000 107.972000 99.322200 100.238000 0 0 0
113 57 1 0.000000 107.881000 99.316500 99.160800 -1 -1 1
114 57 1 0.000000 108.707000 100.151000 99.036000 -1 -1 1
115 58 1 0.000000 106.957000 99.263000 100.878000 1 1 -1
116 58 1 0.000000 107.685000 100.234000 100.955000 1 1 -1
117 59 1 0.000000 108.136000 98.899100 102.517000 -1 -1 -1
118 59 1 0.000000 108.792000 98.520400 97.540500 -1 -1 0
119 60 1 0.000000 93.161700 98.019000 102.930000 0 -1 -3
120 60 1 0.000000 92.729400 99.122900 102.960000 0 -1 -3
121 61 1 0.000000 91.089200 102.050000 100.382000 0 1 1
122 61 1 0.000000 90.828000 101.985000 99.203800 1 1 1
123 62 1 0.000000 109.133000 102.641000 102.745000 1 1 0
124 62 1 0.000000 108.840000 97.440900 101.912000 0 2 0
125 63 1 0.000000 97.258200 100.328000 99.662100 0 0 0
126 63 1 0.000000 106.803000 99.351400 99.066000 0 0 0
127 64 1 0.000000 94.518100 99.572700 97.131900 0 1 1
128 64 1 0.000000 93.673200 98.917700 102.523000 0 1 1
129 65 1 0.000000 90.445000 102.643000 98.435900 2 0 2
130 65 1 0.000000 90.829300 101.579000 98.090000 2 0 2
131 66 1 0.000000 109.722000 100.066000 100.770000 -2 0 0
132 66 1 0.000000 109.555000 100.720000 99.797500 -2 0 0
133 67 1 0.000000 107.270000 97.440000 98.147200 -1 -1 2
134 67 1 0.000000 106.790000 97.628600 99.233300 -1 -1 1
135 68 1 0.000000 109.741000 101.764000 97.128900 0 -2 0
136 68 1 0.000000 109.299000 101.593000 101.989000 0 -2 0
137 69 1 0.000000 90.643000 98.565000 97.704200 1 -1 0
138 69 1 0.000000 89.639000 98.681800 98.240200 1 -1 0
139 70 1 0.000000 110.121000 100.960000 102.537000 0 -1 0
140 70 1 0.000000 110.249000 101.392000 101.459000 0 -1 0
141 71 1 0.000000 109.060000 97.998700 99.098900 1 0 0
142 71 1 0.000000 108.120000 98.339500 99.784200 1 0 0
143 72 1 0.000000 91.138500 99.956200 102.867000 -1 0 -1
144 72 1 0.000000 92.093200 99.964100 97.524500 -2 1 0
145 73 1 0.000000 90.010500 100.203000 99.531100 -1 -2 1
146 73 1 0.000000 90.383300 100.622000 98.438300 -1 -2 1
147 74 1 0.000000 108.396000 99.461600 98.133000 1 -2 -1
148 74 1 0.000000 109.336000 98.872600 98.524900 0 -1 -1
149 75 1 0.000000 97.962800 99.365400 100.066000 1 1 1
150 75 1 0.000000 98.404900 100.225000 99.436200 1 1 1
151 76 1 0.000000 109.129000 102.494000 101.312000 0 -1 -1
152 76 1 0.000000 108.601000 97.588500 100.870000 1 -1 -1
153 77 1 0.000000 90.387900 101.937000 101.550000 1 -1 -1
154 77 1 0.000000 90.371600 102.825000 102.338000 3 -4 -1
155 78 1 0.000000 91.061700 101.698000 102.360000 -1 -1 -1
156 78 1 0.000000 90.741600 102.352000 97.316800 0 -3 -1
157 79 1 0.000000 94.950300 100.161000 97.887200 0 0 1
158 79 1 0.000000 93.933700 100.715000 98.005900 0 -1 1
159 80 1 0.000000 97.671900 99.571300 98.816700 1 1 0
160 80 1 0.000000 96.644700 100.055000 98.747700 1 1 0
161 81 2 0.000000 89.895800 97.504700 101.556000 2 0 0
162 82 2 0.000000 92.893700 102.448000 102.630000 1 -2 0
163 83 2 0.000000 108.653000 97.313400 99.795700 -1 1 0
164 84 2 0.000000 92.421300 98.280700 97.763200 1 -2 1
165 85 2 0.000000 91.655500 102.131000 98.516300 0 1 -2
166 86 2 0.000000 108.226000 100.060000 102.211000 -1 1 -1
167 87 2 0.000000 109.396000 100.389000 101.927000 1 1 1
168 88 2 0.000000 93.303900 101.602000 97.839200 0 0 -1
169 89 2 0.000000 106.090000 98.710900 100.766000 1 -1 -1
170 90 2 0.000000 89.956500 101.562000 98.766300 0 -5 1
171 91 2 0.000000 107.934000 99.269300 101.369000 0 1 -1
172 92 2 0.000000 92.776600 100.305000 102.605000 3 -1 2
173 93 2 0.000000 91.445100 102.513000 101.490000 0 2 -4
174 94 2 0.000000 94.382700 100.410000 100.465000 0 1 -1
175 95 2 0.000000 96.105100 100.163000 99.826600 1 0 1
176 96 2 0.000000 109.286000 98.392900 102.536000 -1 0 -1
177 97 2 0.000000 109.727000 99.672800 99.271100 1 -1 2
178 98 2 0.000000 95.812900 98.527200 98.210800 -2 -2 0
179 99 2 0.000000 108.820000 98.951800 100.788000 -2 -1 1
180 100 2 0.000000 107.120000 98.515300 99.972300 2 1 0
181 101 2 0.000000 95.049600 101.891000 101.758000 -1 1 0
182 102 2 0.000000 92.074000 100.135000 98.583100 -1 -1 -1
183 103 2 0.000000 90.413800 97.406800 97.492600 2 -2 0
184 104 2 0.000000 98.679200 99.093200 99.116600 2 -1 1
185 105 2 0.000000 108.480000 97.548700 98.101200 -1 2 -1
186 106 2 0.000000 110.014000 98.522700 99.338800 0 1 1
187 107 2 0.000000 107.265000 100.059000 99.880600 -1 -2 1
188 108 2 0.000000 92.951600 99.573100 101.837000 -1 3 0
189 109 2 0.000000 93.999100 99.581300 98.251300 0 0 1
190 110 2 0.000000 90.991600 98.931400 102.571000 1 0 0
191 111 2 0.000000 95.517000 100.330000 98.858000 0 1 -1
192 112 2 0.000000 109.998000 100.570000 98.697600 -2 0 -1
193 113 2 0.000000 91.355200 100.905000 98.874300 -1 1 1
194 114 2 0.000000 91.132000 100.105000 101.795000 2 3 1
195 115 2 0.000000 108.315000 98.504400 98.615600 -1 -1 3
196 116 2 0.000000 90.470300 100.980000 97.241200 0 -1 0
197 117 2 0.000000 89.973700 99.046000 97.055600 0 -2 -3
198 118 2 0.000000 89.681900 100.809000 100.452000 1 -1 1
199 119 2 0.000000 110.040000 102.386000 102.027000 4 1 2
200 120 2 0.000000 90.069300 100.018000 102.522000 -1 -1 -1

Velocities 

130 -0.039165 -0.322326 0.928433
34 0.240852 -0.054863 0.116941
33 0.438291 -0.320553 -0.125836
157 0.570527 0.762747 -0.512196
94 -0.199131 0.525193 0.270611
191 -0.041186 -0.224059 -0.038847
133 -0.262037 -0.017560 0.041557
55 0.178348 0.090826 -0.172945
57 0.114943 0.115992 0.340385
56 0.263635 0.361808 -0.124044
29 0.143125 0.168058 0.460775
160 -0.379833 0.113536 -0.304484
182 -0.886189 -0.033504 0.437058
129 0.418724 0.019999 0.481185
164 0.020399 -0.123995 -0.117013
144 0.113438 0.220150 0.193982
108 0.447805 -0.150473 -0.474153
173 -0.242068 0.188942 -0.087321
16 0.207843 -0.111580 -0.574148
71 0.304879 -0.339237 -0.688064
86 -0.481733 -0.212980 -0.059088
180 -0.022000 -0.206755 0.149339
9 0.236109 -0.236245 0.532033
106 0.274803 -0.107566 0.153961
15 -0.476453 -0.009866 -0.367223
149 0.409622 -0.261112 0.496866
159 0.349358 0.027333 0.166342
184 -0.472448 0.045399 -0.246143
107 0.077128 0.181727 0.045554
5 -0.338465 0.153372 0.897755
6 -0.513647 -0.124299 0.137440
122 -0.428081 -0.118726 0.003996
4 -0.202874 -0.005641 -0.799762
190 0.135967 -0.626841 0.449777
39 0.378075 0.319143 0.431470
161 -0.247467 -0.106440 0.057518
67 0.276574 -0.421353 -0.168286
81 0.723672 -0.128749 -0.483891
3 -0.203867 -0.053978 -0.406857
134 -0.373826 0.062869 -0.293523
194 0.382079 0.094996 0.012623
109 0.040200 -0.186545 -0.377950
40 -0.462278 0.409679 -0.376548
66 -0.363955 -0.337380 0.186325
153 0.020015 0.354886 -0.119138
115 0.126626 0.039249 -0.007383
47 -0.123011 0.353771 0.684499
150 0.265042 0.035842 0.279806
193 0.335073 0.154564 0.106857
42 0.083109 0.287717 -0.194925
87 -0.251297 0.057027 0.405695
36 0.322604 -0.517951 -0.524486
168 -0.029212 -0.772635 0.237736
41 -0.010990 -0.036007 -0.474509
37 0.112902 -0.249851 0.009141
88 0.163890 -0.212539 -0.268319
96 0.357383 -0.194892 0.143842
155 0.236358 -0.182081 0.235231
19 -0.334107 -0.039443 -0.592129
13 0.535568 0.142182 0.009201
22 -0.446184 -0.703482 -0.012703
172 -0.235671 0.541660 -0.116929
85 0.152937 0.269152 0.208442
72 0.122297 0.004433 -0.119490
126 -0.175157 -0.190879 -0.110723
165 0.287862 0.522426 -0.378854
189 0.546559 -0.052893 0.438425
21 0.571290 0.286771 -0.503334
174 0.145725 -0.154449 0.558592
46 -0.204333 0.069719 -0.222082
95 0.046755 -0.206474 -0.025816
105 -0.071959 0.290234 0.101743
38 -0.067388 0.308675 -0.327560
163 -0.029769 0.158739 0.375329
8 0.282388 0.061149 0.497023
7 -0.162710 -0.497218 0.382960
175 -0.141634 0.201520 -0.087713
30 0.012453 -0.169454 -0.509341
43 -0.964394 -0.389586 -0.337379
198 0.068541 -0.102418 -0.036957
35 -0.404400 0.124830 -0.648564
121 0.223342 0.152978 0.322168
68 -0.164193 -0.610159 0.155521
73 -0.141336 0.375575 -0.098043
154 0.357780 0.395282 0.260897
48 -0.384958 -0.040201 -0.166479
74 0.068491 -0.037183 0.669099
76 0.090629 -0.280385 0.028876
49 -0.164800 0.398477 0.121110
181 0.079581 0.302913 -0.249675
82 -0.322683 -0.439104 -0.258661
50 0.094783 -0.183420 -0.075189
75 -0.124191 -0.373783 -0.560535
45 -0.064852 -0.194142 0.494622
166 0.057684 -0.467430 0.215013
143 -0.129746 0.374112 -0.034560
62 0.027084 -0.104488 0.278303
185 0.066813 0.379142 -0.014529
138 0.414285 -0.289454 -0.155881
18 -0.606818 0.328926 -0.554069
183 0.354353 0.044364 -0.131862
148 0.405127 -0.377999 0.509642
142 0.508401 -0.514623 0.000988
147 -0.234570 0.245354 0.448844
1 -0.026291 -0.674884 0.358373
61 0.556543 -0.204074 -0.286941
158 0.168048 0.289239 -0.723426
92 0.427398 0.469301 -0.141846
137 -0.076929 0.664870 -0.316417
178 0.174293 0.233448 0.530330
58 -0.314206 0.174133 -0.345962
44 -0.176566 0.451755 -0.597282
110 0.184898 -0.044391 0.163995
179 0.338558 0.192273 0.116725
141 0.108648 0.336152 -0.085383
111 0.053349 0.349975 -0.388398
169 -0.364844 -0.035163 0.098814
101 -0.140415 0.242398 -0.202473
90 0.034162 -0.351363 -0.300178
102 0.009764 -0.437657 0.226373
116 0.418654 0.241391 -0.337441
80 -0.006297 0.453627 0.261006
112 -0.532253 0.077975 0.040535
186 -0.180062 -0.324551 0.074745
59 -0.263223 -0.239663 0.195542
24 0.180274 0.167675 0.277056
79 -0.328718 -0.259596 0.219002
65 -0.179730 -0.329971 0.543591
2 0.120775 -0.296531 -0.203654
77 0.354242 0.249623 -0.112507
70 -0.129585 0.136953 -0.468802
99 -0.070881 -0.103455 -0.137875
52 -0.127063 -0.363209 -0.015485
124 -0.712199 0.208706 0.007013
171 -0.080297 0.186888 -0.078006
78 -0.494881 -0.409915 -0.071025
199 -0.152101 0.226315 -0.428343
69 0.149477 0.620044 -0.874781
197 -0.028008 -0.155842 0.013272
84 0.600575 0.116199 -0.125872
89 0.254392 -0.309004 0.061662
83 -0.410821 0.010339 0.074387
123 0.092495 0.388500 0.026405
152 0.084525 -0.424658 -0.067297
91 -0.658575 -0.167768 0.013324
93 0.174025 -0.262834 0.522812
188 0.108148 -0.239929 -0.202892
176 0.450248 -0.257197 -0.350015
27 0.017760 0.479817 -0.223622
97 -0.148560 -0.078206 0.561836
100 0.094499 -0.108676 -0.007195
146 0.136863 -0.228725 -0.013788
32 -0.643234 -0.089279 0.149297
118 0.247910 0.269834 0.310932
64 -0.485374 -0.176875 0.430473
196 -0.172150 0.080508 -0.386309
14 0.369921 -0.007085 0.104180
63 -0.093017 -0.569146 0.486580
177 -0.479514 0.089898 0.008539
103 -0.237054 -0.558019 0.063511
162 -0.510217 0.075060 -0.014790
17 -0.227517 -0.511935 0.063768
195 0.361228 0.312289 -0.027250
156 0.388192 -0.480656 0.073890
28 0.145462 0.703599 -0.123506
31 0.262199 -0.060536 0.156495
113 0.790317 -0.139881 0.561242
10 -0.287589 0.785317 0.236439
23 0.350281 0.254756 -0.125102
145 -0.149984 0.136702 0.653894
187 -0.296750 0.474368 -0.390738
104 -0.159861 0.532112 -0.367195
60 0.011967 -0.370498 -0.100896
20 -0.133490 -0.034425 -0.196000
192 -0.032527 -0.112781 -0.071968
114 0.663170 0.492314 -0.016048
120 -0.437175 -0.292267 0.002239
170 0.098467 0.209354 0.048867
54 0.018010 -0.269311 0.307186
132 -0.127734 0.133459 0.549062
53 -0.248046 0.012229 0.233953
11 -0.002958 -0.537519 -0.343345
26 -0.083330 0.359844 0.473505
131 0.334646 -0.294553 -0.189087
136 -0.130239 0.272369 0.170944
135 -0.278926 0.126609 0.486038
167 0.084168 -0.130159 -0.038398
128 0.492111 -0.012221 -0.093157
139 0.554936 0.098915 0.043156
98 -0.016715 0.578668 -0.308437
140 -0.389285 -0.053395 0.203658
200 -0.195361 0.294096 0.034707
25 0.313922 -0.038589 -0.310904
119 -0.596120 0.164525 -0.140259
12 0.044478 -0.137055 0.372851
127 -0.172233 0.357949 -0.253982
117 0.207070 -0.134465 -0.705653
51 -0.307520 -0.391296 0.155803
125 0.102217 -0.214651 0.029352
151 0.071948 0.004239 -0.177674

Bonds

1 1 33 34
2 1 157 158
3 2 191 56
4 2 191 71
5 2 191 157
6 2 191 160
7 1 133 134
8 1 55 56
9 1 57 58
10 1 29 30
11 2 182 21
12 2 182 41
13 2 182 55
14 2 182 57
15 1 129 130
16 2 164 39
17 2 164 48
18 2 164 81
19 2 164 109
20 2 173 40
21 2 173 105
22 2 173 121
23 2 173 153
24 1 71 72
25 2 180 33
26 2 180 79
27 2 180 112
28 2 180 115
29 1 9 10
30 1 15 16
31 1 149 150
32 1 159 160
33 2 184 2
35 2 184 149
36 2 184 159
37 1 107 108
38 1 5 6
39 1 39 40
40 2 161 6
41 2 161 24
42 2 161 47
43 2 161 84
44 1 67 68
45 1 81 82
46 1 3 4
47 2 194 3
48 2 194 15
49 2 194 66
50 2 194 67
51 1 109 110
52 1 153 154
53 1 115 116
54 1 47 48
55 2 193 96
56 2 193 130
57 2 193 122
58 1 87 88
59 2 168 13
60 2 168 19
61 2 168 32
62 2 168 42
63 1 41 42
64 1 37 38
65 1 155 156
66 1 19 20
67 1 13 14
68 2 172 22
69 2 172 73
70 2 172 76
71 2 172 144
72 1 85 86
73 2 165 30
74 2 165 31
75 2 165 36
76 2 165 38
77 2 189 127
78 1 21 22
79 2 174 46
80 2 174 75
81 2 174 85
82 2 174 95
83 1 95 96
84 1 105 106
85 2 163 5
86 2 163 7
87 2 163 9
88 2 163 23
89 1 7 8
90 2 175 50
91 2 175 72
92 2 175 86
93 2 175 125
94 1 43 44
95 2 198 16
96 2 198 68
97 2 198 140
98 1 35 36
99 1 121 122
100 1 73 74
101 1 49 50
102 2 181 45
103 2 181 49
104 2 181 74
105 2 181 87
106 1 75 76
107 1 45 46
108 2 166 11
109 2 166 25
110 2 166 28
111 2 166 51
112 1 143 144
113 2 185 52
114 2 185 62
115 2 185 133
116 2 185 141
117 2 183 99
118 2 183 129
119 2 183 137
120 1 147 148
121 1 1 2
122 1 61 62
123 1 137 138
124 2 178 1
125 2 178 82
126 2 178 88
127 2 178 97
128 2 179 60
129 2 179 65
130 2 179 77
131 2 179 102
132 1 141 142
133 1 111 112
134 2 169 10
135 2 169 80
136 2 169 89
137 2 169 101
138 1 101 102
139 2 186 44
140 2 186 138
141 2 186 107
142 2 186 111
143 1 59 60
144 1 79 80
145 1 65 66
146 1 77 78
147 1 99 100
148 2 171 70
149 2 171 78
150 2 171 117
151 2 199 151
152 2 199 154
153 2 199 135
154 2 199 123
155 1 69 70
156 2 197 83
157 2 197 91
158 2 197 110
159 1 89 90
160 1 83 84
161 1 123 124
162 1 91 92
163 1 93 94
164 2 188 4
165 2 188 128
166 2 188 120
167 2 188 106
168 2 176 61
169 2 176 69
170 2 176 92
171 2 176 124
172 1 27 28
173 1 97 98
174 2 196 100
175 2 196 103
176 2 196 146
177 2 196 155
178 1 63 64
179 2 177 27
180 2 177 58
181 2 177 59
182 2 177 114
183 1 103 104
184 2 162 14
185 2 162 20
186 2 162 29
187 2 162 53
188 1 17 18
189 2 195 34
190 2 195 142
191 2 195 118
192 1 31 32
193 1 113 114
194 1 23 24
195 1 145 146
196 2 187 26
197 2 187 113
198 2 187 116
199 2 187 126
200 2 192 132
201 2 192 145
202 2 192 104
203 2 170 8
204 2 170 37
205 2 170 43
206 2 170 63
207 1 53 54
208 1 11 12
209 1 131 132
210 1 135 136
211 2 167 12
212 2 167 64
213 2 167 131
214 2 167 136
215 1 139 140
216 2 200 139
217 2 200 143
218 1 25 26
219 1 119 120
220 1 127 128
221 1 117 118
222 1 51 52
224 1 151 152

