LAMMPS (23 Jun 2022)
OMP_NUM_THREADS environment is not set. Defaulting to 1 thread. (src/comm.cpp:98)
  using 1 OpenMP thread(s) per MPI task
Reading data file ...
  orthogonal box = (0 0 0) to (200 200 200)
  1 by 1 by 1 MPI processor grid
  reading atoms ...
  200 atoms
  scanning bonds ...
  1 = max bonds/atom
  reading bonds ...
  80 bonds
Finding 1-2 1-3 1-4 neighbors ...
  special bond factors lj:    0        0        0       
  special bond factors coul:  0        0        0       
     1 = max # of 1-2 neighbors
     0 = max # of 1-3 neighbors
     0 = max # of 1-4 neighbors
     1 = max # of special neighbors
  special bonds CPU = 0.000 seconds
  read_data CPU = 0.018 seconds
Generated 0 of 1 mixed pair_coeff terms from geometric mixing rule
Neighbor list info ...
  update every 1 steps, delay 0 steps, check yes
  max neighbors/atom: 2000, page size: 100000
  master list distance cutoff = 5.5
  ghost atom cutoff = 5.5
  binsize = 2.75, bins = 73 73 73
  1 neighbor lists, perpetual/occasional/extra = 1 0 0
  (1) pair lj/cut, perpetual
      attributes: half, newton on
      pair build: half/bin/newton
      stencil: half/bin/3d
      bin: standard
Setting up Verlet run ...
  Unit style    : lj
  Current step  : 0
  Time step     : 0.002
Per MPI rank memory allocation (min/avg/max) = 7.938 | 7.938 | 7.938 Mbytes
   Step          Temp         Density         PotEng        Enthalpy        Press           Pxx            Pyy            Pzz            Pxy            Pxz            Pyz             Lx             Ly             Lz             Xy             Yz             Xz          Density    
         0   1              2.75e-05       2.2913944e-28  2.4875         2.4875e-05     2.4540872e-05  2.7057051e-05  2.3027077e-05 -8.5634887e-07  1.0219777e-06  4.891355e-07   200            200            200            0              0              0              2.75e-05     
       100   2.5460692      0.00020837979  4.84198       -3.056329      -0.0022160845  -0.0064438455  -9.1411273e-05 -0.00011299676 -0.00011418486  0.00013728392 -2.0090717e-05  101.8253       101.8253       101.8253       0              0              0              0.00020837979
       200   4.2640435      0.00048094568  1.6512692      17.204591      0.004017749    0.0058415663   0.0033633979   0.0028482827  -4.250224e-05  -8.5856418e-05  7.8903729e-05  77.050516      77.050516      77.050516      0              0              0              0.00048094568
       300   3.4111951      0.00083253558  0.10273797     9.1521593      0.0029957754   0.0036037611   0.0028696044   0.0025139606  -3.3178412e-05 -8.1836553e-05  5.2930188e-05  64.17117       64.17117       64.17117       0              0              0              0.00083253558
       400   2.6563424      0.0012518419   1.5338462      0.86964845    -0.0052677378  -0.004730978   -0.0058872902  -0.0051849453  -0.00041550429 -0.00027833407 -0.00020889385  56.013288      56.013288      56.013288      0              0              0              0.0012518419 
       500   1.8163671      0.0017357788   1.656068       11.420291      0.011129964    0.010057504    0.01293183     0.010400559   -0.00051909575  0.00061488214  0.00018814891  50.231495      50.231495      50.231495      0              0              0              0.0017357788 
       600   1.8936794      0.0022799956   0.33935422     2.2702786     -0.0018559001  -0.0021380188  -0.002310836   -0.0011188455   0.00013891783 -0.00041252552 -0.00012911525  45.866566      45.866566      45.866566      0              0              0              0.0022799956 
       700   2.0048021      0.0028743881   0.24904712     2.6164993     -0.0016324301  -0.00086837794 -0.0019393199  -0.0020895924  -0.00042026835 -0.00043932619  5.3484248e-05  42.457957      42.457957      42.457957      0              0              0              0.0028743881 
       800   1.0031797      0.0035284188   0.9674497      7.7527228      0.016962159    0.016002879    0.019654544    0.015229055   -0.0012144787   0.0010681561   0.0002299405   39.653438      39.653438      39.653438      0              0              0              0.0035284188 
       900   0.95369886     0.0042288201   0.66984971    -1.419967      -0.01350613    -0.013749114   -0.015860433   -0.010908842    0.0010926394  -0.001350193   -0.00015007644  37.330845      37.330845      37.330845      0              0              0              0.0042288201 
      1000   1.4265045      0.0049742849   0.030210575    3.9888276      0.0082734069   0.0079055448   0.010059567    0.0068551087  -0.0011336542   0.00031874659  0.00039827748  35.364214      35.364214      35.364214      0              0              0              0.0049742849 
      1100   0.92091826     0.0057767623   0.32732998     5.3761337      0.019296136    0.021066887    0.02102114     0.015800381   -0.0019272729   0.00086744653  0.0001901337   33.644395      33.644395      33.644395      0              0              0              0.0057767623 
      1200   0.69271128     0.006611152    0.6692885     -2.2717849     -0.023889969   -0.028797752   -0.024980266   -0.017891887    0.002218477   -0.0012329796  -0.001017514    32.164873      32.164873      32.164873      0              0              0              0.006611152  
      1300   1.0054569      0.0074955524   0.23852568     4.9998299      0.022218587    0.025230467    0.024569646    0.016855649   -0.0020350605   0.00018828563  0.00083888201  30.846532      30.846532      30.846532      0              0              0              0.0074955524 
      1400   1.0327428      0.0084293234  -0.021550536    3.2613086      0.013345078    0.017677171    0.01210186     0.010256202   -0.0019502456  -8.4073228e-05  0.00012114209  29.662653      29.662653      29.662653      0              0              0              0.0084293234 
      1500   0.8866781      0.0093837684   0.38617591    -1.0425762     -0.023477499   -0.035927144   -0.020947969   -0.013557385    0.0025990834   0.00065641841  0.0010597967   28.620802      28.620802      28.620802      0              0              0              0.0093837684 
      1600   0.84704245     0.010398198    0.45735589     5.4918639      0.035640269    0.045521541    0.036024264    0.025375004   -0.004070729   -0.0021440434  -0.00069173025  27.658048      27.658048      27.658048      0              0              0              0.010398198  
      1700   1.0929069      0.011446922    0.032597096    1.479066      -0.0019219874  -0.0022409296  -0.0030971776  -0.00042785487 -0.00037806763  0.00074259226  0.00026693326  26.786213      26.786213      26.786213      0              0              0              0.011446922  
      1800   1.183666       0.012516       0.099051645    0.94210484    -0.010508528   -0.022987891   -0.0029996018  -0.0055380894   0.00059135201  0.0010472687   0.00037726847  26.00074       26.00074       26.00074       0              0              0              0.012516     
      1900   0.9200313      0.013651595    0.43090117     5.6487765      0.047715163    0.065080749    0.04225601     0.035808729   -0.0066561021  -0.0042162961   0.00032379472  25.258822      25.258822      25.258822      0              0              0              0.013651595  
      2000   1.0027681      0.014801434    0.25751275    -0.25097525    -0.026980583   -0.04024076    -0.02229054    -0.018410449    0.0023645959   0.0059574729  -0.00083569122  24.587043      24.587043      24.587043      0              0              0              0.014801434  
      2100   1.2488871      0.01598516    -0.049411211    2.9506401      0.016509581    0.014208175    0.022555478    0.012765091   -0.003972517    0.00051178095 -0.001027287    23.96451       23.96451       23.96451       0              0              0              0.01598516   
      2200   0.98303277     0.017231861    0.16672787     4.8138904      0.049815526    0.067343759    0.042766251    0.039336569   -0.0019660391  -0.008311976   -0.00068357172  23.372051      23.372051      23.372051      0              0              0              0.017231861  
      2300   0.84865603     0.018474551    0.31307342    -1.0962527     -0.044942624   -0.069457287   -0.034870441   -0.030500144    1.3082799e-05  0.0067783558  -0.0057775431   22.835802      22.835802      22.835802      0              0              0              0.018474551  
      2400   1.0453197      0.019774481    6.5626938e-05  3.8786108      0.041677517    0.052822757    0.039700062    0.032509731   -0.0031451796  -0.0014951624   0.0041605496   22.324026      22.324026      22.324026      0              0              0              0.019774481  
      2500   1.0139636      0.021117674   -0.082269292    3.2846103      0.035584027    0.045208168    0.028480579    0.033063333   -0.0014321847  -0.0065002961   0.00091177819  21.840313      21.840313      21.840313      0              0              0              0.021117674  
      2600   0.84925293     0.022453441    0.20217394    -0.67708799    -0.043820378   -0.063341152   -0.031510086   -0.036609897   -0.0018794236   0.0081530284  -0.0019601656   21.398332      21.398332      21.398332      0              0              0              0.022453441  
      2700   0.89405744     0.023863869    0.14873014     4.3533101      0.062267324    0.075211591    0.059109735    0.052480648   -0.00074818556 -0.0050027915   0.0037893171   20.968174      20.968174      20.968174      0              0              0              0.023863869  
      2800   1.0267118      0.025295052   -0.071328573    1.8348704      0.0085964464   0.010257966    0.0051581534   0.01037322    -0.0079124929  -0.0021215237   0.0026912362   20.565015      20.565015      20.565015      0              0              0              0.025295052  
      2900   1.02337        0.026726149    0.059094779    0.76081171    -0.020060715   -0.023002256   -0.019584339   -0.017595552   -0.0067462279   0.0020153536  -0.00043668257  20.191198      20.191198      20.191198      0              0              0              0.026726149  
      3000   0.96236247     0.028236618    0.18220021     4.7464335      0.080292293    0.098328284    0.074676458    0.067872135   -0.002760879    0.0041827897  -0.0014269633   19.82455       19.82455       19.82455       0              0              0              0.028236618  
      3100   1.0518057      0.029737619    0.062321152    0.81722309    -0.022030657   -0.039748218   -0.0048248024  -0.021518949   -0.010446014   -0.0066320716   0.0022872755   19.485228      19.485228      19.485228      0              0              0              0.029737619  
      3200   1.1581722      0.031268248   -0.039264681    1.9873636      0.0084724554   0.0080555868   0.0092152833   0.0081464961   0.0074366849   0.00062306167  0.0016684834   19.16195       19.16195       19.16195       0              0              0              0.031268248  
      3300   1.0174051      0.0328748      0.095905361    4.2750809      0.079518117    0.09542489     0.075017122    0.068112337   -0.010628765    0.0091774101  -0.0020267212   18.844582      18.844582      18.844582      0              0              0              0.0328748    
      3400   0.97104229     0.034453346    0.10692892    -0.01354548    -0.049166649   -0.073590739   -0.039304706   -0.034604501   -0.0089746772  -0.012970364   -0.0022058939   18.552271      18.552271      18.552271      0              0              0              0.034453346  
      3500   1.0776119      0.036084853   -0.081255841    3.1357575      0.052771721    0.056156489    0.055968005    0.046190668    0.00011933825  0.0058861792   0.01008396     18.268347      18.268347      18.268347      0              0              0              0.036084853  
      3600   0.99518025     0.03776863    -0.074773654    3.2666695      0.063730672    0.06343584     0.068048785    0.059707391   -0.0034680364   0.0067702786   0.0013180145   17.992734      17.992734      17.992734      0              0              0              0.03776863   
      3700   0.89818571     0.039420147    0.037901418   -0.31353665    -0.060634646   -0.074690929   -0.065712515   -0.041500493   -0.013028953   -0.017681383   -0.0011953792   17.737871      17.737871      17.737871      0              0              0              0.039420147  
      3800   0.9644534      0.04116614    -0.090016266    3.5565631      0.082599213    0.094273048    0.083613576    0.069911015    0.010199606    0.0048663983  -0.0012654738   17.483465      17.483465      17.483465      0              0              0              0.04116614   
      3900   1.0004851      0.042904322   -0.1813713      2.0575862      0.029086534    0.015934296    0.044142677    0.027182629   -0.0052783924   0.0091918125   0.011369682    17.2441        17.2441        17.2441        0              0              0              0.042904322  
      4000   0.96034649     0.044647665   -0.098954653    0.63661363    -0.028320779   -0.029838185   -0.033531157   -0.021592995   -0.00021225055 -0.010866994   -0.0041109845   17.016673      17.016673      17.016673      0              0              0              0.044647665  
      4100   0.95649595     0.046479711   -0.09688522     3.3011157      0.083259135    0.095759059    0.084003667    0.070014678   -0.0096637261   0.0033958963  -0.0063115897   16.790092      16.790092      16.790092      0              0              0              0.046479711  
      4200   0.99488602     0.048300433   -0.15304961     1.2334589     -0.0043188892  -0.011833248    0.010189758   -0.011313177   -0.0045231725  -0.0078201423   0.0066191809   16.576413      16.576413      16.576413      0              0              0              0.048300433  
      4300   1.0314357      0.050136942   -0.16091975     1.5354332      0.007152951   -0.0020667981   0.012357717    0.011167934    0.00074369263 -0.00073814251  0.0054929722   16.371493      16.371493      16.371493      0              0              0              0.050136942  
      4400   1.0687002      0.052036566   -0.2175466      3.198622       0.086150484    0.088309578    0.086931584    0.083210291   -0.0080382158  -0.0042243767  -0.0080434162   16.169801      16.169801      16.169801      0              0              0              0.052036566  
      4500   1.0281524      0.053919905   -0.18390161     1.0128989     -0.016554243    0.005973022   -0.033490893   -0.022144856    0.00029719754  0.0063293862   0.0034588636   15.979304      15.979304      15.979304      0              0              0              0.053919905  
      4600   1.0380098      0.055838274   -0.22929753     1.8736845      0.028109619    0.035671263    0.029838818    0.018818775   -0.0022363709  -0.0099154621  -0.0054088809   15.794173      15.794173      15.794173      0              0              0              0.055838274  
      4700   1.0153804      0.057828089   -0.28528087     2.7197816      0.078310129    0.054889784    0.08525354     0.094787064   -0.013955597    0.0056177651   0.0026931459   15.6109        15.6109        15.6109        0              0              0              0.057828089  
      4800   0.95831702     0.059787474   -0.267622       0.7248362     -0.023797042    0.0015234707  -0.040236478   -0.032678119   -0.010255201    0.0154018      0.0079461642   15.438466      15.438466      15.438466      0              0              0              0.059787474  
      4900   0.98505415     0.061795398   -0.35421615     1.6090893      0.027701874    0.037401554    0.02005668     0.02564739     0.013729186   -0.00058987578  0.006708533    15.269407      15.269407      15.269407      0              0              0              0.061795398  
      5000   0.94840357     0.063866631   -0.35926092     2.4296953      0.079744104    0.063611544    0.10102076     0.074600014    0.00032498126 -0.02030008    -0.0030591068   15.102525      15.102525      15.102525      0              0              0              0.063866631  
      5100   0.94437094     0.065908556   -0.37793026     0.36340402    -0.040032818   -0.044377365   -0.00056483893 -0.07515625    -0.043833762    0.00021468476  0.0051088386   14.944921      14.944921      14.944921      0              0              0              0.065908556  
      5200   0.99118878     0.068005707   -0.45060094     1.9206559      0.055140732    0.03974642     0.0938868      0.031788977    0.011138187    0.0044279346  -0.01301751     14.789691      14.789691      14.789691      0              0              0              0.068005707  
      5300   0.99173407     0.070137491   -0.47873711     2.196791       0.076218092    0.060931804    0.065169185    0.10255329     0.021194523    0.0033455661   0.024162301    14.638306      14.638306      14.638306      0              0              0              0.070137491  
      5400   1.0280935      0.07221411    -0.53598954     0.74960787    -0.016335633   -0.032309721    0.016535645   -0.033232824   -0.0071125285   0.0030317677   0.011046012    14.496624      14.496624      14.496624      0              0              0              0.07221411   
      5500   1.0210426      0.074373283   -0.55688796     2.4898161      0.10295953     0.10309746     0.091273278    0.11450787    -0.0018016062   0.010038924    0.00037849918  14.354957      14.354957      14.354957      0              0              0              0.074373283  
      5600   1.0228675      0.076516555   -0.6136197      1.402891       0.03407637     0.021503344    0.051559635    0.029166131   -0.00987696    -0.014559725   -0.025595263    14.219656      14.219656      14.219656      0              0              0              0.076516555  
      5700   0.94965247     0.078709011   -0.55007699     0.53439629    -0.023818994   -0.015567264   -0.019409582   -0.036480137   -0.0180041      0.011967779    0.0064182763   14.08638       14.08638       14.08638       0              0              0              0.078709011  
      5800   0.94759806     0.080975298   -0.57885506     1.6943971      0.06323155     0.045933676    0.069422342    0.074338632    0.0044822239  -0.0097511392  -0.0084919624   13.953721      13.953721      13.953721      0              0              0              0.080975298  
      5900   0.94412512     0.083245505   -0.59053386     1.2323777      0.031315808    0.055543005    0.010987584    0.027416835   -0.011084004   -0.0026273446   0.026260673    13.825705      13.825705      13.825705      0              0              0              0.083245505  
      6000   0.93601588     0.085524972   -0.55570438     0.49192688    -0.027163698   -0.02009441    -0.025632243   -0.03576444    -0.00052125409  0.0041799515  -0.0046605172   13.701767      13.701767      13.701767      0              0              0              0.085524972  
      6100   0.97921349     0.087881114   -0.58172541     1.7746283      0.071493493    0.062790895    0.092487275    0.05920231     0.0090729572  -0.012124155    0.012974113    13.578205      13.578205      13.578205      0              0              0              0.087881114  
      6200   1.0244802      0.090209899   -0.60251438     1.1465066      0.018040684    0.047429559   -0.0031351741   0.0098276674   0.023369216   -0.0030692797   0.022321938    13.460344      13.460344      13.460344      0              0              0              0.090209899  
      6300   1.0587638      0.09255565    -0.60999758     1.0670943      0.0081522112   0.0008924717   0.021648851    0.0019153112  -0.0050073697  -0.016840729   -0.0091535313   13.345656      13.345656      13.345656      0              0              0              0.09255565   
      6400   1.0736384      0.094926743   -0.62096909     1.6924456      0.061358011    0.033927027    0.099413472    0.050733534    0.016923317   -0.031223382    0.025646172    13.233601      13.233601      13.233601      0              0              0              0.094926743  
      6500   1.0486507      0.097335256   -0.61212831     1.1356633      0.016164765    0.068914329   -0.007131091   -0.013288944   -0.010626424    0.0067758963   0.02856704     13.123535      13.123535      13.123535      0              0              0              0.097335256  
      6600   1.0560771      0.099760658   -0.67402347     0.96395918     0.005603606   -0.045381091    0.023248583    0.038943327    0.0096604071   0.055127054   -0.0077910687   13.016307      13.016307      13.016307      0              0              0              0.099760658  
      6700   1.0617897      0.10220103    -0.75871467     1.539182       0.06626116     0.089591822    0.085473386    0.023718271   -0.0071726823  -0.034278974    0.0082975928   12.91187       12.91187       12.91187       0              0              0              0.10220103   
      6800   1.0007901      0.10463323    -0.75443564     0.84271185     0.009842015    0.0055682012  -0.012863668    0.036821512   -0.020466438   -0.027746943    0.018656151    12.811039      12.811039      12.811039      0              0              0              0.10463323   
      6900   0.96505413     0.10712059    -0.78011927     1.1363637      0.046367602    0.0148863      0.021296117    0.10292039     0.0099234335   0.025147588    0.023156505    12.711103      12.711103      12.711103      0              0              0              0.10712059   
      7000   0.97380839     0.10961667    -0.85582404     1.5339066      0.093305871    0.10563293     0.1188286      0.055456088    0.0081555942  -0.0034893167   0.0070551112   12.61388       12.61388       12.61388       0              0              0              0.10961667   
      7100   0.95846422     0.11211517    -0.88321432     0.29842983    -0.025364906   -0.029787012   -0.014559691   -0.031748015   -0.019928721   -0.042694978    0.021221426    12.519475      12.519475      12.519475      0              0              0              0.11211517   
      7200   0.92688543     0.11466072    -0.84906684     0.85833241     0.033775165    0.026114036    0.056010904    0.019200553    0.0093531188  -0.02804517     0.010091754    12.426133      12.426133      12.426133      0              0              0              0.11466072   
      7300   0.90321481     0.11727348    -0.81021507     0.83426973     0.031603783    0.07088941     0.0066576171   0.017264323   -0.032722322   -0.010342851    0.054996334    12.333158      12.333158      12.333158      0              0              0              0.11727348   
      7400   0.92936123     0.11991688    -0.80510109     0.30673848    -0.030004518   -0.059035361    0.014523186   -0.04550138     0.053984646    0.0036208777  -0.018452568    12.241861      12.241861      12.241861      0              0              0              0.11991688   
      7500   1.0226857      0.12258681    -0.8684647      1.3969057      0.082357376    0.041028407    0.066868234    0.13917549     0.035786215    0.041762714    0.047638604    12.152333      12.152333      12.152333      0              0              0              0.12258681   
      7600   1.0477229      0.12523594    -0.83826047     1.4963112      0.08776139     0.077187637    0.094883119    0.091213414   -0.069447518   -0.02282805     0.021074262    12.066034      12.066034      12.066034      0              0              0              0.12523594   
      7700   1.0722495      0.12779452    -0.82910989     0.48613731    -0.033120293   -0.027266799    0.012369291   -0.084463372    0.041763042    0.016128825   -0.027495437    11.984966      11.984966      11.984966      0              0              0              0.12779452   
      7800   1.1263148      0.13050163    -0.92331647     1.763085       0.11927572     0.17980963     0.11103784     0.066979683    0.017848462    0.0066328148   0.04687086     11.901515      11.901515      11.901515      0              0              0              0.13050163   
      7900   1.0904875      0.13318734    -0.93820896     1.0361835      0.04199516     0.0070227978   0.054493537    0.064469144   -0.0085206784   0.0052679253   0.018483845    11.820974      11.820974      11.820974      0              0              0              0.13318734   
      8000   0.99239353     0.13585513    -0.87619453     0.38923735    -0.026641865   -0.056313692    0.039291321   -0.062903225    0.014596349   -0.022693268   -0.030084066    11.743085      11.743085      11.743085      0              0              0              0.13585513   
      8100   0.97488117     0.13859207    -0.94107341     1.3025471      0.099359222    0.093680786    0.082208502    0.12218838     0.026712267   -0.018719997    0.0040055212   11.665269      11.665269      11.665269      0              0              0              0.13859207   
      8200   0.93603166     0.14135916    -0.96182851     0.3543922     -0.010384313    0.099380185   -0.087016384   -0.04351674     0.065067625    0.01555532     0.05177016     11.588652      11.588652      11.588652      0              0              0              0.14135916   
      8300   0.93664309     0.14419817    -1.0032417      0.35229114    -0.0055590915  -0.063752973    0.044530245    0.0025454534  -0.042164784   -0.030393593   -0.027748454    11.512094      11.512094      11.512094      0              0              0              0.14419817   
      8400   0.98422544     0.14702758    -1.0880468      0.80074478     0.05611576     0.071590142    0.02844272     0.068314418   -0.031066518   -0.0027542047  -0.0012239852   11.437768      11.437768      11.437768      0              0              0              0.14702758   
      8500   0.97007146     0.14992067    -1.0741217      0.40872256     0.0047719256  -0.023524286    0.049261396   -0.011421333    0.022450638    0.0044566006  -0.035985598    11.363716      11.363716      11.363716      0              0              0              0.14992067   
      8600   1.020988       0.15282429    -1.1400539      0.27174519    -0.015563836    0.010155648   -0.013231077   -0.043616078    0.046630343   -0.0047702957   0.067837645    11.291287      11.291287      11.291287      0              0              0              0.15282429   
      8700   1.0585716      0.15573111    -1.1926584      0.68383414     0.041987144   -0.0013811814   0.13054285    -0.0032002355  -0.030062841   -0.03648613     0.02129885     11.220592      11.220592      11.220592      0              0              0              0.15573111   
      8800   1.0540632      0.15858382    -1.1997682      0.92052927     0.078874993    0.063108109    0.13516208     0.03835479     0.0352704      0.0089243     -0.061709432    11.152903      11.152903      11.152903      0              0              0              0.15858382   
      8900   1.0181524      0.1614126     -1.1831026      0.4309151      0.013855828   -0.001403858    0.023304322    0.019667021   -0.0015396457   0.035413239   -0.010993886    11.087367      11.087367      11.087367      0              0              0              0.1614126    
      9000   1.0130854      0.16431332    -1.218727       0.86121968     0.084832987    0.088081731    0.11122988     0.055187353    0.01903628    -0.016797612    0.024253765    11.021735      11.021735      11.021735      0              0              0              0.16431332   
      9100   0.94432387     0.16719734    -1.1579917      0.25991967     0.0012931968   0.012680768   -0.037165224    0.028364046    0.031126857   -0.00062372908  0.0097202298   10.957995      10.957995      10.957995      0              0              0              0.16719734   
      9200   0.92550578     0.17019871    -1.152515      -0.05262962    -0.043544878   -0.10723593    -0.017215407   -0.006183298    0.082399758   -0.021066273    0.013112461    10.8932        10.8932        10.8932        0              0              0              0.17019871   
      9300   0.92878902     0.17337155    -1.1589192      0.43078383     0.032071434    0.037474645    0.11579767    -0.057058009   -0.027369665    0.060894786   -0.093035223    10.826339      10.826339      10.826339      0              0              0              0.17337155   
      9400   0.99423401     0.1765039     -1.2281088      0.4718751      0.034673335   -0.016127375    0.012210843    0.10793654     0.029735906   -0.012365961    0.070109569    10.761912      10.761912      10.761912      0              0              0              0.1765039    
      9500   1.0387225      0.1795962     -1.2610289      0.22301471    -0.010816538    0.042931094   -0.099232194    0.023851485   -0.0085276618   0.044347301    0.0055730845   10.699788      10.699788      10.699788      0              0              0              0.1795962    
      9600   1.0478793      0.18271559    -1.2521625      0.89982222     0.097673917    0.15237764     0.079709239    0.060934872   -0.0084562413   0.083186432   -0.013660165    10.638548      10.638548      10.638548      0              0              0              0.18271559   
      9700   1.0758202      0.18581934    -1.3059378      0.15496578    -0.024453511    0.079709906   -0.047544642   -0.1055258      0.033759547   -0.10269544     0.0082303333   10.578983      10.578983      10.578983      0              0              0              0.18581934   
      9800   1.0660348      0.18886805    -1.3237445      1.1060943      0.14401735     0.1510692      0.22588946     0.05509338    -0.017230437    0.048938866    0.066701132    10.521752      10.521752      10.521752      0              0              0              0.18886805   
      9900   1.0069216      0.19188645    -1.3061742      0.6390169      0.07716638     0.027305467    0.11565012     0.088543553   -0.01490395    -0.033142442    0.04380239     10.466291      10.466291      10.466291      0              0              0              0.19188645   
     10000   1.034638       0.19493788    -1.4218007     -0.19887525    -0.05693459    -0.12687174    -0.012021374   -0.031910652   -0.0195433      0.0040294022  -0.079006361    10.411392      10.411392      10.411392      0              0              0              0.19493788   
     10100   0.97424102     0.1982289     -1.4188856      0.3538743      0.057433259    0.10257422     0.10646692    -0.036741357    0.02305144     0.06426195    -0.046379461    10.353454      10.353454      10.353454      0              0              0              0.1982289    
     10200   0.94549037     0.20142973    -1.4384335      0.094738881    0.022345524   -0.048784995   -0.023413023    0.13923459    -0.038876891   -0.0036959874  -0.047350684    10.29832       10.29832       10.29832       0              0              0              0.20142973   
     10300   0.96222066     0.20463912    -1.5100802     -0.059134178    0.0027592171  -0.0134889     -0.054954774    0.076721325    0.0080472148   0.13432822     0.005261117    10.244199      10.244199      10.244199      0              0              0              0.20463912   
     10400   0.97033498     0.20798583    -1.538103      -0.25374743    -0.030984099    0.030351449   -0.044153153   -0.079150594    0.053393239   -0.03012929     0.026055339    10.188955      10.188955      10.188955      0              0              0              0.20798583   
     10500   0.91885312     0.21138181    -1.4489117     -0.026620162    0.0097818396   0.0022668189   0.12517995    -0.098101247   -0.00081356895  0.066387684    0.041605715    10.134096      10.134096      10.134096      0              0              0              0.21138181   
     10600   0.97343223     0.21479834    -1.4963354     -0.062530015   -0.0037183945  -0.062829325    0.027736164    0.023937977   -0.027823643    0.017461901   -0.021606074    10.080079      10.080079      10.080079      0              0              0              0.21479834   
     10700   1.0528738      0.21827476    -1.5758651     -0.22355076    -0.043476344    0.14804305    -0.050303216   -0.22816886     0.10840603    -0.024428614    0.040934898    10.026278      10.026278      10.026278      0              0              0              0.21827476   
     10800   1.069646       0.22163416    -1.5743476      0.87497394     0.17184199     0.16829754     0.15390327     0.19332518    -0.0033172505   0.082395954    0.022195904    9.975362       9.975362       9.975362       0              0              0              0.22163416   
     10900   1.1251822      0.22477069    -1.6772376      0.34799126     0.070679032    0.026274214    0.087940947    0.097821937   -0.048852508   -0.070525668   -0.035457475    9.9287444      9.9287444      9.9287444      0              0              0              0.22477069   
     11000   1.0493855      0.2279766     -1.6291269     -0.37648874    -0.064987784   -0.082547375   -0.0037726228  -0.10864335    -0.0077234175  -0.055605136    0.024909287    9.8819838      9.8819838      9.8819838      0              0              0              0.2279766    
     11100   0.99681933     0.23142121    -1.6372432      0.22939153     0.079710285    0.086555757    0.14232358     0.01025152     0.0042620759   0.07317911    -0.050576081    9.8327086      9.8327086      9.8327086      0              0              0              0.23142121   
     11200   0.97489403     0.2348109     -1.6839188      0.1140486      0.073205093   -0.01088992     0.02202841     0.20847679    -0.060045927    0.0058976329   0.043582487    9.7851647      9.7851647      9.7851647      0              0              0              0.2348109    
     11300   0.94729331     0.23821267    -1.6992355     -0.199489       0.018604668    0.13146548    -0.11216712     0.036515646   -0.064724804    0.094321113   -0.043731333    9.7383627      9.7383627      9.7383627      0              0              0              0.23821267   
     11400   0.93127396     0.24177066    -1.716502      -0.55597999    -0.050421144   -0.13412945     0.014622507   -0.031756488   -0.11331392     0.010836641    0.018937101    9.6903552      9.6903552      9.6903552      0              0              0              0.24177066   
     11500   0.91700943     0.24547886    -1.7150423     -0.34855411    -0.00047943253  0.24992009    -0.043028781   -0.20832961     0.057651748   -0.16478838     0.022437702    9.6413132      9.6413132      9.6413132      0              0              0              0.24547886   
     11600   0.97641782     0.24895608    -1.7869988      0.055852018    0.087258479    0.10728793     0.072117984    0.082369521    0.10873957     0.079438836    0.013014508    9.5962152      9.5962152      9.5962152      0              0              0              0.24895608   
     11700   0.98851201     0.2524399     -1.784954      -0.39277029    -0.019086852    0.0124342     -0.014701397   -0.054993359   -0.023592738    0.0050540241  -0.13328527     9.5518661      9.5518661      9.5518661      0              0              0              0.2524399    
     11800   1.0092064      0.25622028    -1.7938802     -0.86319735    -0.13406324    -0.19262847    -0.073179983   -0.13638126    -0.00077687489 -0.017472292    0.091363517    9.5046558      9.5046558      9.5046558      0              0              0              0.25622028   
     11900   1.0459219      0.26000851    -1.825301      -0.12653105     0.032555798    0.080877998    0.02786135    -0.011071955    0.1036995      0.033829689    0.045065293    9.4582699      9.4582699      9.4582699      0              0              0              0.26000851   
     12000   1.0955135      0.26364405    -1.8962189      0.20764428     0.11236254     0.17549735     0.075552356    0.086037899    0.035467073   -0.11204893     0.049920585    9.4145934      9.4145934      9.4145934      0              0              0              0.26364405   
     12100   1.0718186      0.26715502    -1.8842841     -0.66982498    -0.093560145   -0.085814462   -0.15288936    -0.041976612   -0.11124382    -0.023426907   -0.0018037816   9.373169       9.373169       9.373169       0              0              0              0.26715502   
     12200   1.0418093      0.27078175    -1.8894011     -0.50325324    -0.04154099     0.080796798   -0.036630557   -0.16878921    -0.016911267   -0.065597085    0.12519148     9.331134       9.331134       9.331134       0              0              0              0.27078175   
     12300   1.0429399      0.2744415     -1.9585298     -0.060211359    0.085259165    0.030606501    0.23401745    -0.0088464597   0.04927962     0.070081082   -0.034304715    9.2894706      9.2894706      9.2894706      0              0              0              0.2744415    
     12400   0.95767575     0.27798628    -1.9033567     -0.15456188     0.080733226    0.22799062    -0.10186426     0.11607331     0.0045341952   0.11819091    -0.055657366    9.2498163      9.2498163      9.2498163      0              0              0              0.27798628   
     12500   0.92209632     0.28161879    -1.9056299     -0.35678262     0.044193301   -0.14969725     0.19275282     0.089524337    0.10025637     0.04601982     0.051939502    9.2098739      9.2098739      9.2098739      0              0              0              0.28161879   
     12600   0.97363287     0.28531389    -2.0116252     -0.49884815     0.015466604   -0.052101901    0.10330602    -0.0048043114  -0.049929934    0.030099918    0.043963489    9.1699419      9.1699419      9.1699419      0              0              0              0.28531389   
     12700   0.92812691     0.28910433    -1.9506487     -0.40070822     0.043289703    0.11316085    -0.070957727    0.087665982    0.0025901242   0.091308191   -0.057801073    9.1296899      9.1296899      9.1296899      0              0              0              0.28910433   
     12800   0.97938668     0.2929463     -2.0214961     -0.48969611     0.018659456   -0.13524499     0.07794484     0.11327852    -0.065096303    0.08774497     0.045616126    9.0896024      9.0896024      9.0896024      0              0              0              0.2929463    
     12900   1.0194987      0.29672574    -2.0647035     -0.73761205    -0.0524693     -0.28072928     0.23778118    -0.11445981     0.017708288   -0.091025725   -0.083879904    9.0508456      9.0508456      9.0508456      0              0              0              0.29672574   
     13000   1.0446613      0.30060934    -2.093616      -0.018750314    0.14093351     0.25081077     0.014946741    0.15704303    -0.030533964    0.08468225    -0.00091078881  9.0117002      9.0117002      9.0117002      0              0              0              0.30060934   
     13100   1.0537293      0.30423092    -2.1288142     -0.27448589     0.077893448    0.17158237    -0.064498253    0.12659623    -0.13857903    -0.13144386    -0.039820754    8.9757989      8.9757989      8.9757989      0              0              0              0.30423092   
     13200   1.0058017      0.30789386    -2.1149976     -0.46312521     0.042185208    0.075432194    0.067525215   -0.016401787    0.15270851    -0.061968189   -0.068083087    8.9400624      8.9400624      8.9400624      0              0              0              0.30789386   
     13300   0.98041167     0.31169778    -2.1507899     -0.056067747    0.17893089     0.30752057     0.20126311     0.028008995   -0.011666923   -0.013452964    0.13275672     8.9035457      8.9035457      8.9035457      0              0              0              0.31169778   
     13400   1.0001805      0.31544918    -2.2498925     -1.3263768     -0.163246      -0.25104235    -0.095346568   -0.14334909    -0.0015884724   0.062691144    0.0041354865   8.8681105      8.8681105      8.8681105      0              0              0              0.31544918   
     13500   0.9385131      0.31954606    -2.2156582      0.032154811    0.24607435     0.26558114     0.32045719     0.15218472    -0.0052005099   0.23966787     0.045284129    8.8300481      8.8300481      8.8300481      0              0              0              0.31954606   
     13600   0.96821337     0.32325466    -2.2917932     -1.172227      -0.095651725    0.0057592685  -0.25831874    -0.034395698    0.064116991   -0.050618191    0.072905477    8.7961501      8.7961501      8.7961501      0              0              0              0.32325466   
     13700   0.91286053     0.32733358    -2.2292793     -0.59173861     0.08186206     0.096116339   -0.018106095    0.16757593     0.050594081   -0.12982113    -0.21815274     8.7594608      8.7594608      8.7594608      0              0              0              0.32733358   
     13800   0.92123785     0.33124482    -2.2270561     -0.86516685    -0.0039322608  -0.019363213   -0.047907919    0.055474349    0.035109359    0.10633026    -0.047027988    8.7248479      8.7248479      8.7248479      0              0              0              0.33124482   
     13900   1.0021784      0.3353049     -2.3144153     -1.1862585     -0.11205109    -0.2121982     -0.11788436    -0.0060707219  -0.054020307   -0.0050705249   0.016649438    8.6894895      8.6894895      8.6894895      0              0              0              0.3353049    
     14000   1.0345015      0.33948813    -2.3116037     -0.57827275     0.058434401    0.028135262   -0.076737387    0.22390533    -0.060480318   -0.021223974    0.095303821    8.6536507      8.6536507      8.6536507      0              0              0              0.33948813   
     14100   1.0799218      0.34352419    -2.3382355     -0.2551506      0.14718497     0.15283958     0.20572147     0.082993874   -0.25649473    -0.032834608    0.091938384    8.6196266      8.6196266      8.6196266      0              0              0              0.34352419   
     14200   1.1106606      0.34727215    -2.3695157     -0.70312507     0.0027559784   0.12569593    -0.092558534   -0.024869464    0.047587009   -0.056365688   -0.15915304     8.588505       8.588505       8.588505       0              0              0              0.34727215   
     14300   1.0872874      0.35106287    -2.3821067     -0.58424994     0.055876526    0.10982363     0.03891939     0.018886559    0.19241668     0.015883457    0.15410676     8.5574807      8.5574807      8.5574807      0              0              0              0.35106287   
     14400   1.0404157      0.35483039    -2.4294424     -0.72129636     0.050103849    0.020339877    0.21152399    -0.081552321    0.044771902   -0.0014213186  -0.016657321    8.5270857      8.5270857      8.5270857      0              0              0              0.35483039   
     14500   1.0004399      0.3587716     -2.4741107     -1.5241955     -0.17718142    -0.052068547   -0.27772327    -0.20175246    -0.14604142     0.10071099     0.11760687     8.4957464      8.4957464      8.4957464      0              0              0              0.3587716    
     14600   0.98567905     0.36297488    -2.4941942     -1.0615901     -0.01271135    -0.13473098     0.19335047    -0.096753538    0.039885855    0.013150613   -0.041373084    8.4628252      8.4628252      8.4628252      0              0              0              0.36297488   
     14700   0.91396454     0.36721819    -2.4003389     -1.1549416     -0.039624429    0.0036644411  -0.025419909   -0.09711782     0.12568076    -0.00060272531  0.014666803    8.4301021      8.4301021      8.4301021      0              0              0              0.36721819   
     14800   0.9884812      0.37173625    -2.5046417     -1.6626506     -0.21402447    -0.19465594    -0.25674699    -0.19067048    -0.10323941     0.081381508    0.021451286    8.3958097      8.3958097      8.3958097      0              0              0              0.37173625   
     14900   0.95828669     0.37646613    -2.4376652     -1.1717341     -0.056234386    0.0031361343  -0.010947509   -0.16089178    -0.18376254    -0.19059266    -0.20396725     8.3605001      8.3605001      8.3605001      0              0              0              0.37646613   
     15000   1.0073056      0.3808789     -2.474465      -0.96173239     0.0032301801  -0.078251568    0.059586849    0.028355259    0.0014872782   0.018580831    0.11825125     8.328087       8.328087       8.328087       0              0              0              0.3808789    
     15100   1.0938031      0.38519463    -2.5843995     -0.67106494     0.098341378    0.050997932    0.092123878    0.15190232    -0.18783985    -0.0091887284  -0.085079209    8.2968675      8.2968675      8.2968675      0              0              0              0.38519463   
     15200   1.0310995      0.38922439    -2.5089139     -0.76870581     0.071225249    0.16311006     0.025516003    0.025049687   -0.058673733   -0.0080919391  -0.11511843     8.2681347      8.2681347      8.2681347      0              0              0              0.38922439   
     15300   1.0443487      0.39318793    -2.5781344     -1.1992157     -0.064258285    0.081431379   -0.094435285   -0.17977095     0.035242194   -0.038204496    0.13527399     8.2402585      8.2402585      8.2402585      0              0              0              0.39318793   
     15400   1.0043733      0.39761441    -2.6196042     -1.1598567     -0.014198359    0.046902505   -0.072066172   -0.017431411    0.10070612    -0.020886901    0.015813194    8.2095658      8.2095658      8.2095658      0              0              0              0.39761441   
     15500   0.95574658     0.40213256    -2.6370831     -1.7584919     -0.20028417    -0.14986702    -0.21750384    -0.23348163    -0.044663243   -0.0089093547  -0.24100967     8.1787038      8.1787038      8.1787038      0              0              0              0.40213256   
     15600   0.90057161     0.40695232    -2.6102223     -1.074778       0.070787936    0.078078408   -0.049260539    0.18354594    -0.14057494     0.037544844   -0.005780148    8.1462872      8.1462872      8.1462872      0              0              0              0.40695232   
     15700   0.99265331     0.41173323    -2.7559375     -1.8467506     -0.21423159    -0.33419771    -0.22156436    -0.086932709    0.021301885   -0.019424236    0.047039073    8.1146337      8.1146337      8.1146337      0              0              0              0.41173323   
     15800   1.0326225      0.41665522    -2.8148015     -1.3756491     -0.038649218   -0.045570391    0.057267278   -0.12764454     0.039997297    0.11994336    -0.01786144     8.082554       8.082554       8.082554       0              0              0              0.41665522   
     15900   1.0064406      0.42116107    -2.7843732     -0.79213284     0.18765703     0.33863105     0.23729902    -0.012958991   -0.1049661      0.13201269    -0.23343813     8.0536265      8.0536265      8.0536265      0              0              0              0.42116107   
     16000   0.97960503     0.42519878    -2.7473265     -1.1855668      0.038538178    0.10526132     0.049162768   -0.038809553   -0.27979733     0.093889401    0.12763778     8.0280528      8.0280528      8.0280528      0              0              0              0.42519878   
     16100   0.94575508     0.42950878    -2.7017222     -1.7456621     -0.17784764    -0.12279783    -0.30227405    -0.10847103     0.14539791    -0.053390437   -0.038871248    8.0011095      8.0011095      8.0011095      0              0              0              0.42950878   
     16200   0.96841889     0.43430177    -2.7237953     -1.2128668      0.025885685    0.15949847     0.026972071   -0.10881349    -0.015462541    0.27581009     0.33724536     7.9715669      7.9715669      7.9715669      0              0              0              0.43430177   
     16300   0.96277198     0.43885972    -2.6860295     -1.4992745     -0.099813538    0.056093319   -0.25241469    -0.10311925     0.0018405473  -0.12982856    -0.2856672      7.9438735      7.9438735      7.9438735      0              0              0              0.43885972   
     16400   1.063194       0.44359156    -2.7500117     -1.1750396     -0.0047766835   0.15602575    -0.23291368     0.062557887    0.01248247     0.068262177    0.14118014     7.9155264      7.9155264      7.9155264      0              0              0              0.44359156   
     16500   1.133308       0.44810287    -2.7336301     -0.57586387     0.18995656     0.25058135     0.40476572    -0.085477389    0.093185135    0.18076925    -0.11843194     7.8888734      7.8888734      7.8888734      0              0              0              0.44810287   
     16600   1.0980721      0.45221143    -2.6161914     -1.3594548     -0.15709662    -0.018469042   -0.30667653    -0.14614428    -0.021201577   -0.019528057   -0.10562466     7.8649093      7.8649093      7.8649093      0              0              0              0.45221143   
     16700   1.1171598      0.45635919    -2.6333752     -1.2303471     -0.10966431     0.11715679    -0.32396601    -0.1221837     -0.0053348905   0.10465945    -0.13170266     7.8410092      7.8410092      7.8410092      0              0              0              0.45635919   
     16800   1.0267562      0.46098313    -2.5325416     -0.39814532     0.25226786     0.093962821    0.43339667     0.22944409    -0.13338278    -0.12270593    -0.023075467    7.8147043      7.8147043      7.8147043      0              0              0              0.46098313   
     16900   0.98890953     0.46542342    -2.5327797     -1.7749609     -0.30384901    -0.51955865     0.092446171   -0.48443454    -0.11230383    -0.012831144    0.051351047    7.7897732      7.7897732      7.7897732      0              0              0              0.46542342   
     17000   0.98452015     0.47048787    -2.5951302     -0.78438967     0.14599844    -0.032780519    0.54131991    -0.070544058    0.1082997     -0.030907947    0.13339256     7.761722       7.761722       7.761722       0              0              0              0.47048787   
     17100   0.97777854     0.47535598    -2.6473668     -1.7250545     -0.23206971    -0.27370832    -0.25220939    -0.17029143    -0.0064093254  -0.023713243    0.010349388    7.7351351      7.7351351      7.7351351      0              0              0              0.47535598   
     17200   0.97497556     0.48069596    -2.6759253     -1.7572456     -0.23443598    -0.16381353    -0.28087497    -0.25861944    -0.13940849     0.06493233     0.018826487    7.7063856      7.7063856      7.7063856      0              0              0              0.48069596   
     17300   0.9580877      0.485908      -2.6493754     -0.80033981     0.18512638     0.26066736     0.17213165     0.12258014     0.12466971    -0.1419853      0.062130712    7.6787326      7.6787326      7.6787326      0              0              0              0.485908     
     17400   0.99317505     0.49079849    -2.7024472     -1.7007647     -0.21444825    -0.39531708    -0.21588513    -0.03214254     0.012959475   -0.041615117    0.046383193    7.6531429      7.6531429      7.6531429      0              0              0              0.49079849   
     17500   1.018752       0.49619811    -2.7449695     -2.0007173     -0.35015134    -0.2597578     -0.57221954    -0.21847668    -0.049955969    0.30970472    -0.27273132     7.6252811      7.6252811      7.6252811      0              0              0              0.49619811   
     17600   1.0689845      0.50195123    -2.834954      -2.0108485     -0.35198367    -0.42717491    -0.27416041    -0.35461568    -0.053880207   -0.025331495   -0.18820717     7.5960367      7.5960367      7.5960367      0              0              0              0.50195123   
     17700   0.99194872     0.50757624    -2.7341663     -1.0422987      0.097539636    0.43515887    -0.073942932   -0.068597029   -0.097991002    0.01303034     0.11688727     7.5678724      7.5678724      7.5678724      0              0              0              0.50757624   
     17800   0.99699556     0.51249823    -2.7533872     -1.1813061      0.03916662    -0.19330932     0.23246052     0.07834866     0.039595285    0.021462153    0.079148025    7.5435673      7.5435673      7.5435673      0              0              0              0.51249823   
     17900   1.03784        0.51737992    -2.8431204     -1.1967044      0.045830386   -0.17594842     0.23845227     0.074987314    0.15668173     0.21761422     0.29220134     7.5197667      7.5197667      7.5197667      0              0              0              0.51737992   
     18000   1.023556       0.5219832     -2.8669728     -0.65442863     0.32499948     0.68444384     0.17201039     0.11854422     0.039961938   -0.071337191   -0.061372213    7.4975963      7.4975963      7.4975963      0              0              0              0.5219832    
     18100   0.9387659      0.52600671    -2.8172195     -1.1013338      0.15052283    -0.0065883914   0.21644144     0.24171544     0.093063794    0.25740265     0.088818729    7.4784305      7.4784305      7.4784305      0              0              0              0.52600671   
     18200   0.91969509     0.53075148    -2.8944491     -1.7470008     -0.10865769    -0.0032574321  -0.34732056     0.024604923    0.088734626   -0.063946059    0.089290012    7.4560788      7.4560788      7.4560788      0              0              0              0.53075148   
     18300   0.95339058     0.53583502    -3.0063645     -2.0399907     -0.22240154    -0.56956985    -0.098406188    0.00077141984 -0.040933431   -0.1379815     -0.038911957    7.4324249      7.4324249      7.4324249      0              0              0              0.53583502   
     18400   0.94805137     0.54117027    -3.0258542     -1.8827707     -0.13375918    -0.028308145   -0.086857273   -0.28611212     0.083817563   -0.083860688   -0.20152027     7.4079194      7.4079194      7.4079194      0              0              0              0.54117027   
     18500   0.9318795      0.54670475    -2.9992912     -2.1458378     -0.26707853    -0.15780686    -0.14578742    -0.49764131     0.1135898     -0.21815433     0.19613658     7.382837       7.382837       7.382837       0              0              0              0.54670475   
     18600   1.0061909      0.55259634    -3.091439      -2.19026       -0.30169796    -0.69738957    -0.088166979   -0.11953734     0.14424665     0.065193454   -0.016924061    7.3565054      7.3565054      7.3565054      0              0              0              0.55259634   
     18700   0.98893935     0.55875689    -3.0485501     -1.3485171      0.11380404     0.18234582     0.29768413    -0.13861783    -0.21003637     0.051590064   -0.079655238    7.3293691      7.3293691      7.3293691      0              0              0              0.55875689   
     18800   1.0713566      0.56394717    -3.1528095     -1.535393       0.0094419343   0.52372598    -0.15025458    -0.3451456     -0.068120626    0.011804852    0.046460192    7.3068146      7.3068146      7.3068146      0              0              0              0.56394717   
     18900   1.0514521      0.56882766    -3.1224315     -1.7877271     -0.12130915    -0.37412842     0.0070534358   0.00314753    -0.19726666     0.40188245    -0.16276839     7.2858572      7.2858572      7.2858572      0              0              0              0.56882766   
     19000   0.98805345     0.57378784    -3.0443657     -0.9970173      0.29872365     0.35025312     0.33188915     0.2140287     -0.14128846    -0.2363801     -0.067689885    7.2648019      7.2648019      7.2648019      0              0              0              0.57378784   
     19100   1.0177668      0.57808482    -3.1043494     -1.4138937      0.090096479   -0.27107164     0.42832051     0.11304056     0.33713669    -0.021384394    0.33660509     7.2467571      7.2467571      7.2467571      0              0              0              0.57808482   
     19200   0.9622832      0.58201617    -3.0407748     -1.2608715      0.18185132     0.33954173     0.010946803    0.19506542    -0.17815567    -0.15615144     0.069603666    7.2304036      7.2304036      7.2304036      0              0              0              0.58201617   
     19300   1.0171341      0.58667214    -3.1542274     -2.2085345     -0.30527202    -0.26244395    -0.1905807     -0.4627914     -0.25228483     0.052687697    0.0072048889   7.2112254      7.2112254      7.2112254      0              0              0              0.58667214   
     19400   1.0185594      0.59255641    -3.1887284     -2.0574882     -0.20952785    -0.2034234     -0.28051837    -0.14464179    -0.071060208   -0.045953608   -0.18979639     7.1872761      7.1872761      7.1872761      0              0              0              0.59255641   
     19500   0.95627955     0.59856549    -3.1258055     -1.8355539     -0.074546228   -0.32818372    -0.07468697     0.17923201     0.15805762     0.01377933     0.39071139     7.1631438      7.1631438      7.1631438      0              0              0              0.59856549   
     19600   0.98500693     0.60461228    -3.1985167     -1.9755851     -0.13586805    -0.23891962    -0.061543372   -0.10714117    -0.040385715    0.056131163   -0.072317861    7.1391839      7.1391839      7.1391839      0              0              0              0.60461228   
     19700   1.0127221      0.61098869    -3.2929289     -2.1896723     -0.22674959    -0.08018929    -0.58738138    -0.012678109   -0.075454342   -0.049550697   -0.28048714     7.1142617      7.1142617      7.1142617      0              0              0              0.61098869   
     19800   0.95350298     0.61729973    -3.3123067     -2.6824222     -0.44513976    -0.45799395    -0.35491262    -0.52251272    -0.068323684   -0.11681275     0.48796337     7.0899341      7.0899341      7.0899341      0              0              0              0.61729973   
     19900   0.87105165     0.6240743     -3.2973414     -2.5354447     -0.30531297    -0.75866798    -0.097293525   -0.059977404    0.31959882    -0.33027512     0.093230604    7.064186       7.064186       7.064186       0              0              0              0.6240743    
     20000   0.89834687     0.63058475    -3.3701866     -2.8430866     -0.46645081    -0.76901851    -0.4452918     -0.18504211    -0.1365093     -0.08065028    -0.21183577     7.0397906      7.0397906      7.0397906      0              0              0              0.63058475   
     20100   0.89927295     0.63719749    -3.3578817     -3.1932974     -0.68213763    -0.57198199    -0.75096081    -0.72347009     0.098945823    0.21467484    -0.32824159     7.0153532      7.0153532      7.0153532      0              0              0              0.63719749   
     20200   0.89153855     0.64439024    -3.2905329     -1.9863763     -0.015503267    0.033914526   -0.12066128     0.040236952   -0.16304908    -0.17793912    -0.11160614     6.9891534      6.9891534      6.9891534      0              0              0              0.64439024   
     20300   1.0313003      0.65036339    -3.4232393     -2.1560015     -0.16080403    -0.064227946   -0.38642081    -0.031763338    0.02895473     0.037785825    0.14481972     6.9676907      6.9676907      6.9676907      0              0              0              0.65036339   
     20400   1.0389178      0.65633644    -3.3775634     -1.8767735     -0.029711088    0.0058532333  -0.15431612     0.059329623   -0.42343844     0.002087768   -0.31144142     6.9464896      6.9464896      6.9464896      0              0              0              0.65633644   
     20500   1.0426619      0.66202802    -3.35777       -2.2140318     -0.24822116     0.39799788    -0.94001844    -0.20264293    -0.037449055    0.2361852      0.21564372     6.9265255      6.9265255      6.9265255      0              0              0              0.66202802   
     20600   1.1026628      0.6670786     -3.4394887     -1.2906717      0.30509308     0.41315786     0.49615257     0.0059688036  -0.10280197    -0.053022857    0.31502966     6.9090005      6.9090005      6.9090005      0              0              0              0.6670786    
     20700   1.0999225      0.67165194    -3.4699874     -2.4082534     -0.35408288    -0.34191564    -0.44846879    -0.27186419    -0.14852836     0.03956717    -0.16567259     6.8932834      6.8932834      6.8932834      0              0              0              0.67165194   
     20800   1.0591128      0.67696398    -3.4717112     -2.4512816     -0.34481852    -0.33365207     0.013113514   -0.71391701     0.12713128    -0.34382126     0.068435498    6.8752059      6.8752059      6.8752059      0              0              0              0.67696398   
     20900   1.0143914      0.68240363    -3.4911155     -1.8497257      0.079041385   -0.085428858    0.3609653     -0.038412286   -0.37910387     0.29296699    -0.2756673      6.856889       6.856889       6.856889       0              0              0              0.68240363   
     21000   1.0033679      0.68763095    -3.5447968     -1.7731934      0.17133059     0.092967049   -0.10559454     0.52661926     0.16214604    -0.19614043     0.1183944      6.8394696      6.8394696      6.8394696      0              0              0              0.68763095   
     21100   1.0354855      0.6927145     -3.6395189     -1.7721667      0.20270723     0.17790627     0.18097588     0.24923953    -0.25515273     0.13692492    -0.022601113    6.8226978      6.8226978      6.8226978      0              0              0              0.6927145    
     21200   0.97115599     0.69770931    -3.574595      -1.9226996      0.12840714     0.1291998      0.074337157    0.18168447    -0.044399605   -0.19440785     0.12452719     6.8063779      6.8063779      6.8063779      0              0              0              0.69770931   
     21300   0.99273778     0.70256988    -3.6215593     -1.4833686      0.41932539     0.30310556     0.26674879     0.68812182     0.095824223   -0.051087334   -0.16969883     6.7906454      6.7906454      6.7906454      0              0              0              0.70256988   
     21400   1.0494712      0.70703077    -3.7235902     -2.7246458     -0.36469372    -0.43465351    -0.0066103288  -0.65281733    -0.31801176    -0.31437898    -0.073137423    6.7763338      6.7763338      6.7763338      0              0              0              0.70703077   
     21500   1.07535        0.71257839    -3.8008755     -2.7502365     -0.3590883     -0.2164054     -0.48849278    -0.37236672     0.09580047     0.31047085     0.030027065    6.7587027      6.7587027      6.7587027      0              0              0              0.71257839   
     21600   1.0061082      0.71905738    -3.7653871     -2.3282528     -0.042151313   -0.25365244    -0.13596837     0.26316687    -0.14135332    -0.28714227    -0.15616778     6.7383419      6.7383419      6.7383419      0              0              0              0.71905738   
     21700   1.0034851      0.72458888    -3.8290143     -2.3839693     -0.034685776    0.1673821     -0.25205954    -0.019379883    0.13053878    -0.20814894    -0.10009476     6.7211513      6.7211513      6.7211513      0              0              0              0.72458888   
     21800   0.92438502     0.72985392    -3.7729274     -1.7353394      0.43654779     0.54771356     0.21711225     0.54481754    -0.19219674     0.094618241   -0.17310484     6.7049506      6.7049506      6.7049506      0              0              0              0.72985392   
     21900   0.97278267     0.73469517    -3.8711393     -2.1195334      0.20018957     0.19425517    -0.060739327    0.46705287    -0.1294196     -0.010312181   -0.13550312     6.6901907      6.6901907      6.6901907      0              0              0              0.73469517   
     22000   0.96519293     0.73954252    -3.8643026     -2.5978529     -0.11704995     0.21739781     0.19762544    -0.76617309     0.13832696    -0.05434869     0.16278568     6.6755417      6.6755417      6.6755417      0              0              0              0.73954252   
     22100   1.0176916      0.7447147     -3.9414965     -2.2028487      0.14876896    -0.058441636   -0.16274941     0.66749791     0.2525327     -0.15261256     0.25281078     6.6600515      6.6600515      6.6600515      0              0              0              0.7447147    
     22200   1.0602714      0.74927613    -3.9972339     -2.5194103     -0.07127081    -0.24103644     0.11294401    -0.085719998    0.4142413      0.053036941    0.068221138    6.646509       6.646509       6.646509       0              0              0              0.74927613   
     22300   1.0385425      0.75398457    -3.9671264     -1.9155011      0.34381738     0.28565784     0.15415021     0.59164407     0.19062523    -0.021731084    0.024001812    6.6326448      6.6326448      6.6326448      0              0              0              0.75398457   
     22400   1.0656092      0.75821803    -4.0214772     -2.9637898     -0.36720796    -0.33916094    -0.28626176    -0.47620118     0.17239383    -0.065472076   -0.35583324     6.6202775      6.6202775      6.6202775      0              0              0              0.75821803   
     22500   1.0140682      0.76303541    -3.9725088     -1.8769462      0.40376071     0.2616328      0.1382562      0.81139315    -0.13133848    -0.12654701     0.1390176      6.6063158      6.6063158      6.6063158      0              0              0              0.76303541   
     22600   0.99098652     0.76705319    -3.9723199     -1.1759314      0.91860974     1.0839383      0.86951201     0.80237893    -0.06691688    -0.030112453    0.41818049     6.5947611      6.5947611      6.5947611      0              0              0              0.76705319   
     22700   1.0564255      0.76991726    -4.0958201     -2.1219671      0.27796665    -0.013675081   -0.01525514     0.86283017    -0.018013895    0.0089427956   0.25389144     6.5865735      6.5865735      6.5865735      0              0              0              0.76991726   
     22800   1.0051292      0.77311429    -4.0481316     -1.7132686      0.58665862     0.55919119     0.67638253     0.52440215     0.094578801   -0.24679837     0.24567263     6.5774819      6.5774819      6.5774819      0              0              0              0.77311429   
     22900   0.97886971     0.77641714    -4.0351242     -2.3449613      0.16177698    -0.084514767    0.074485976    0.49535973    -0.0058198924  -0.046605228    0.034874721    6.5681418      6.5681418      6.5681418      0              0              0              0.77641714   
     23000   1.0326358      0.78014038    -4.1291513     -1.8209907      0.54393635     0.79177257     0.27294772     0.56708875     0.05071488     0.14160931     0.19984654     6.5576763      6.5576763      6.5576763      0              0              0              0.78014038   
     23100   0.97818493     0.7833554     -4.0589269     -1.3338929      0.90092492     1.6012429      0.31615597     0.78537591    -0.24740262    -0.16111444    -0.066355414    6.5486927      6.5486927      6.5486927      0              0              0              0.7833554    
     23200   1.0065726      0.78553623    -4.1076396     -2.353152       0.1800863      0.63488403    -0.092770578   -0.0018545462   0.037666357   -0.23722737     0.021326448    6.5426269      6.5426269      6.5426269      0              0              0              0.78553623   
     23300   1.0041152      0.78802718    -4.1119827     -1.7237665      0.63728069     0.63813495     1.5010059     -0.22729876    -0.4345105     -0.42172668     0.084040585    6.5357259      6.5357259      6.5357259      0              0              0              0.78802718   
     23400   1.0113452      0.790607      -4.1361971     -1.7730215      0.61361375     1.1801804      0.36491382     0.29574701    -0.27090651     0.12638373     0.046364549    6.5286092      6.5286092      6.5286092      0              0              0              0.790607     
     23500   0.99695118     0.79328587    -4.1339262     -1.435234       0.87314994     2.000739       0.44416771     0.17454315    -0.21852763    -0.15230909     0.36564036     6.5212521      6.5212521      6.5212521      0              0              0              0.79328587   
     23600   1.0412384      0.79548441    -4.2214692     -2.1385696      0.38244814     0.075409199    0.76316701     0.30876822     0.28448431    -0.30752365    -0.24418446     6.5152388      6.5152388      6.5152388      0              0              0              0.79548441   
     23700   1.0415876      0.79835337    -4.2447468     -1.781889       0.65921368     0.55836307     0.70810358     0.71117437    -0.28791827    -0.16092021    -0.030120094    6.507425       6.507425       6.507425       0              0              0              0.79835337   
     23800   0.98889526     0.80096585    -4.1929824     -1.7011786      0.73971204     0.49853677     1.3759195      0.34467981     0.26426624    -0.13916502     0.0056786177   6.5003423      6.5003423      6.5003423      0              0              0              0.80096585   
     23900   0.95695091     0.8027201     -4.1547204     -2.2832744      0.32342084     0.53018317     0.35960819     0.080471161    0.12839516    -0.22193541     0.084451186    6.4956036      6.4956036      6.4956036      0              0              0              0.8027201    
     24000   1.0008536      0.80506903    -4.2162538     -2.1000835      0.45552001     0.62982186     0.76872823    -0.031990043    0.084159017   -0.6485811     -0.095044739    6.4892801      6.4892801      6.4892801      0              0              0              0.80506903   
     24100   1.0114804      0.80762372    -4.2260653     -1.7182145      0.73289371     1.3092056      0.5482441      0.34123142     0.028210674    0.63507006     0.35271696     6.4824305      6.4824305      6.4824305      0              0              0              0.80762372   
     24200   0.98873963     0.80958528    -4.1928073     -1.8492816      0.63871264     1.2748756      0.4189944      0.22226792    -0.1970754     -0.27619162    -0.65921031     6.4771908      6.4771908      6.4771908      0              0              0              0.80958528   
     24300   1.0368942      0.81111547    -4.2738055     -1.7410289      0.72647335     1.0785686      0.59051972     0.51033173     0.041949616   -0.5620705      0.35315454     6.4731151      6.4731151      6.4731151      0              0              0              0.81111547   
     24400   1.0154672      0.81233833    -4.251024      -1.8585999      0.64753663     0.073606123    1.3722876      0.49671617    -0.038625094    0.08905781     0.11957121     6.4698654      6.4698654      6.4698654      0              0              0              0.81233833   
     24500   1.1047244      0.81408765    -4.394849      -2.2076239      0.39847656     0.25957045     0.94625311    -0.010393878    0.34738698     0.37513195    -0.36188449     6.4652279      6.4652279      6.4652279      0              0              0              0.81408765   
     24600   1.0078168      0.81620814    -4.2780061     -1.630037       0.84870994     0.78555431     1.0599158      0.70065969     0.33166171    -0.090292667   -0.025364825    6.4596242      6.4596242      6.4596242      0              0              0              0.81620814   
     24700   0.94976448     0.81733292    -4.2162674     -1.854489       0.70160965     0.15885642     0.40425865     1.5417139     -0.71995414    -0.32537131    -0.68283978     6.4566597      6.4566597      6.4566597      0              0              0              0.81733292   
     24800   1.0490376      0.81858312    -4.4102008     -2.4563706      0.28884192     0.18898972     0.049214337    0.62832171     0.17572046    -0.37525599    -0.30604534     6.453371       6.453371       6.453371       0              0              0              0.81858312   
     24900   0.87959596     0.82115724    -4.2835048     -1.9983154      0.72589735     0.63474627     0.963367       0.5795788      0.071363334   -0.10987059    -0.31485209     6.4466207      6.4466207      6.4466207      0              0              0              0.82115724   
     25000   0.89373793     0.82429914    -4.3921133     -2.3632853      0.52075035     1.1649602      0.1063587      0.29093213     0.23393215     0.31111063     0.39359033     6.4384196      6.4384196      6.4384196      0              0              0              0.82429914   
     25100   0.93544384     0.82796576    -4.4782719     -2.8011945      0.21145308     0.29713707     0.41629804    -0.079075862   -0.17815467    -0.0062283993  -0.22090723     6.4289014      6.4289014      6.4289014      0              0              0              0.82796576   
     25200   0.88929272     0.832235      -4.3861184     -2.2622407      0.6026957      1.1568779     -0.03692576     0.68813494     0.56346058    -0.1716494     -0.30800616     6.4178895      6.4178895      6.4178895      0              0              0              0.832235     
     25300   0.930029       0.83639694    -4.3964241     -2.0741096      0.71036425     0.61715559     0.81926473     0.69467241     0.56723962    -0.079139728    0.28126318     6.4072266      6.4072266      6.4072266      0              0              0              0.83639694   
     25400   0.99498136     0.83920733    -4.4195255     -1.4599369      1.1249795      0.46263977     1.3182216      1.5940772      0.30734736     0.039458014    0.10469225     6.4000663      6.4000663      6.4000663      0              0              0              0.83920733   
     25500   1.0699356      0.84061496    -4.4704247     -1.7148152      0.88549659     1.1157788      1.1463972      0.39431377     0.5461009     -0.19463827     0.28680872     6.3964919      6.3964919      6.3964919      0              0              0              0.84061496   
     25600   1.0547791      0.84173931    -4.4273721     -1.4779294      1.0523157      0.95080689     1.1236857      1.0824544      0.11563166    -0.1651858     -0.022191547    6.3936426      6.3936426      6.3936426      0              0              0              0.84173931   
     25700   0.99632513     0.84217238    -4.3396412     -1.7204281      0.86682339     0.42566618     1.2330844      0.94171964     0.4237343     -0.027219582   -0.25329431     6.3925465      6.3925465      6.3925465      0              0              0              0.84217238   
     25800   1.0529526      0.84259723    -4.443589      -1.3601714      1.1581007      1.4669318      0.83567187     1.1716985     -0.12638311     0.40514587     0.59221535     6.3914719      6.3914719      6.3914719      0              0              0              0.84259723   
     25900   1.0149226      0.8427319     -4.432437      -1.6124588      0.9999445      0.74651057     1.1680271      1.0852958      0.35399457     0.59839707     0.70910508     6.3911314      6.3911314      6.3911314      0              0              0              0.8427319    
     26000   0.9790414      0.84322316    -4.4530405     -1.3741819      1.2400281      1.3195378      0.7810761      1.6194704      0.076182492    0.33494002    -0.13635851     6.38989        6.38989        6.38989        0              0              0              0.84322316   
     26100   0.95852417     0.843036      -4.4949503     -2.3676479      0.53395226     0.95149037     0.20509123     0.44527518    -0.22866682     0.17418236     0.02418268     6.3903629      6.3903629      6.3903629      0              0              0              0.843036     
     26200   0.96701905     0.84420632    -4.5719477     -1.9265091      0.92261205     0.99172425     1.1504748      0.62563706     0.021608538    0.2272117     -0.16254596     6.3874085      6.3874085      6.3874085      0              0              0              0.84420632   
     26300   0.92503942     0.84575773    -4.5567339     -2.513416       0.50952791     0.56307535     0.19028858     0.77521979     0.43191486    -0.042463483   -0.10044198     6.3835006      6.3835006      6.3835006      0              0              0              0.84575773   
     26400   0.86088232     0.84764603    -4.4742841     -2.1639897      0.7901815      0.86952208     0.64126407     0.85975836    -0.17394341    -0.087082489    0.39820657     6.3787569      6.3787569      6.3787569      0              0              0              0.84764603   
     26500   0.94640218     0.84962913    -4.565124      -1.9116866      0.95848373     0.80125648     0.99353027     1.0806644     -0.069901106   -0.092217761    0.099536874    6.3737902      6.3737902      6.3737902      0              0              0              0.84962913   
     26600   1.0358801      0.8513669     -4.5595193     -1.9919458      0.79062769     1.1208318      0.45633169     0.79471962    -0.30462241    -0.49222168    -0.73738397     6.3694506      6.3694506      6.3694506      0              0              0              0.8513669    
     26700   1.0654699      0.85281979    -4.4632039     -1.8424687      0.79895365     1.4576985      0.16772339     0.77143908     0.27908938     0.23536604    -0.0021576796   6.3658315      6.3658315      6.3658315      0              0              0              0.85281979   
     26800   1.0495865      0.85340079    -4.3967222     -0.87301397     1.5184331      1.6524058      1.1215059      1.7813874     -0.17000949     0.73581246    -0.32161628     6.3643865      6.3643865      6.3643865      0              0              0              0.85340079   
     26900   1.1136569      0.85190546    -4.4995784     -1.3962675      1.116134       1.4311736      1.085337       0.83189128    -0.071479869    0.44158635     0.3540637      6.3681081      6.3681081      6.3681081      0              0              0              0.85190546   
     27000   1.070525       0.84987134    -4.4740322     -1.447045       1.1042368      1.4343662      1.0493212      0.82902302     0.0065503298   0.31306903    -0.02655288     6.3731846      6.3731846      6.3731846      0              0              0              0.84987134   
     27100   1.0088094      0.84801451    -4.4396716     -1.478904       1.1217842      1.0324075      1.8783572      0.45458779     0.22480571    -0.29639685    -0.034581389    6.3778328      6.3778328      6.3778328      0              0              0              0.84801451   
     27200   1.0436173      0.8470189     -4.5428197     -1.7112337      0.98099197     1.0620157      0.71037047     1.1705898     -0.16481276    -0.15367285     0.15386022     6.3803308      6.3803308      6.3803308      0              0              0              0.8470189    
     27300   1.0107209      0.84676999    -4.5481921     -2.3516724      0.52963058     0.063201775    0.14059226     1.3850977     -0.036613208    0.0077101537   0.26129766     6.3809559      6.3809559      6.3809559      0              0              0              0.84676999   
     27400   0.91587073     0.84758173    -4.4518275     -1.5112424      1.2125412      1.48291        1.1752568      0.97945691    -0.48725933    -0.51909511     0.61270486     6.3789182      6.3789182      6.3789182      0              0              0              0.84758173   
     27500   0.95665831     0.8477216     -4.542977      -1.7973932      1.0155483      1.7968136     -0.27275894     1.5225902      0.097656743    0.1369004      0.72910912     6.3785673      6.3785673      6.3785673      0              0              0              0.8477216    
     27600   0.91728064     0.84758871    -4.4875516     -1.8591192      0.97040512     1.1987512      0.67086893     1.0415953      0.2269372      0.25938325    -0.34742995     6.3789007      6.3789007      6.3789007      0              0              0              0.84758871   
[...]
    136000   0.10212059     0.27168844    -4.6237439     -4.7276259     -0.063302669    0.10861306    -0.15722739    -0.14129368     0.010768668    0.00046701735 -0.058783306    23.078673      5.9233902      5.9233902      0              0              0              0.27168844   
    137000   0.098409704    0.26898509    -4.6116577     -4.7767277     -0.076280871    0.13063831    -0.19285462    -0.16662631     0.029972721    0.047107755   -0.039535944    23.310618      5.9233902      5.9233902      0              0              0              0.26898509   
    138000   0.10549824     0.26630865    -4.610948      -4.8785061     -0.10289542     0.070834223   -0.16801939    -0.21150108    -0.021443237   -0.029795718   -0.069335027    23.544893      5.9233902      5.9233902      0              0              0              0.26630865   
    139000   0.094466377    0.26365883    -4.619484      -4.8760551     -0.09529162     0.025860099   -0.19090639    -0.12082856     0.024607533    0.053916357   -0.10530463     23.781523      5.9233902      5.9233902      0              0              0              0.26365883   
    140000   0.10445891     0.26103538    -4.6332863     -4.7407598     -0.062501006    0.076833544   -0.10693074    -0.15740582     0.039254338   -0.027611402   -0.11772115     24.020532      5.9233902      5.9233902      0              0              0              0.26103538   
    141000   0.10231658     0.25843804    -4.6583979     -4.9833443     -0.11222174     0.014930135   -0.16649736    -0.185098      -0.024214703    0.045075227   -0.045540156    24.261942      5.9233902      5.9233902      0              0              0              0.25843804   
    142000   0.10318775     0.25586654    -4.653111      -4.8205626     -0.07477333     0.050733995   -0.090816236   -0.18423775     0.016817782    0.022069055   -0.073422429    24.505779      5.9233902      5.9233902      0              0              0              0.25586654   
    143000   0.1099486      0.25332062    -4.6709488     -4.8034324     -0.068300278    0.092445226   -0.049197874   -0.24814818    -0.036526492    0.0074922468  -0.052039968    24.752066      5.9233902      5.9233902      0              0              0              0.25332062   
    144000   0.10019101     0.25080004    -4.6682802     -4.8227288     -0.069308288    0.050911052   -0.087507431   -0.17132849    -0.044030479    0.024018828   -0.054924601    25.000828      5.9233902      5.9233902      0              0              0              0.25080004   
    145000   0.11396188     0.24830454    -4.6537732     -5.0919808     -0.13731143    -0.09697617    -0.089309574   -0.22564856    -0.025066059    0.0097973676  -0.072385043    25.252091      5.9233902      5.9233902      0              0              0              0.24830454   
    146000   0.099301853    0.24583387    -4.6728252     -4.8524976     -0.073276451   -0.0050035329  -0.08953314    -0.12529268     0.019891396    0.021512768   -0.05819892     25.505878      5.9233902      5.9233902      0              0              0              0.24583387   
    147000   0.1048952      0.24338778    -4.6583263     -4.8138142     -0.069043352   -0.019618098   -0.039399461   -0.1481125     -0.050078186    0.017184715   -0.05384966     25.762217      5.9233902      5.9233902      0              0              0              0.24338778   
    148000   0.10947529     0.24096603    -4.6854526     -4.9675278     -0.097584013   -0.007122015   -0.056278509   -0.22935151     0.016289855   -0.0033202237   0.013450993    26.021131      5.9233902      5.9233902      0              0              0              0.24096603   
    149000   0.093766706    0.23856838    -4.6915361     -4.9012386     -0.075832063    0.030879984   -0.058908805   -0.19946737     0.061421861    0.023328568   -0.023065144    26.282648      5.9233902      5.9233902      0              0              0              0.23856838   
    150000   0.093217092    0.23619458    -4.7080867     -4.8548203     -0.061380569    0.0457958     -0.064510203   -0.1654273     -0.01851517    -0.041246054   -0.004511516    26.546793      5.9233902      5.9233902      0              0              0              0.23619458   
    151000   0.10291244     0.23384441    -4.7017383     -4.7441006     -0.041658145    0.057624009   -0.039570121   -0.14302832    -0.0092068778   0.013617582   -0.031774983    26.813593      5.9233902      5.9233902      0              0              0              0.23384441   
    152000   0.09538938     0.23151762    -4.6961758     -4.641051      -0.018362267    0.018933314   -0.0020281666  -0.071991949   -0.0099748961  -0.038291933    0.013508195    27.083074      5.9233902      5.9233902      0              0              0              0.23151762   
    153000   0.09943382     0.22921398    -4.7288519     -4.9757615     -0.082374207   -0.0079846171  -0.081552038   -0.15758597    -0.0015286398   0.0094556589   0.0011131672   27.355263      5.9233902      5.9233902      0              0              0              0.22921398   
    154000   0.1081433      0.22693326    -4.7140694     -4.9331067     -0.078486134    0.071356644   -0.12202973    -0.18478531     0.015274878   -0.02255009    -0.01804149     27.630188      5.9233902      5.9233902      0              0              0              0.22693326   
    155000   0.095579784    0.22467524    -4.7075508     -5.2400247     -0.13789478    -0.021343394   -0.19045742    -0.20188353     0.054085889   -0.012654004   -0.030250438    27.907876      5.9233902      5.9233902      0              0              0              0.22467524   
    156000   0.097270225    0.22243968    -4.7349842     -4.9083763     -0.064420131    0.026582294   -0.10134123    -0.11850146     0.027369101   -0.014346767   -0.015371387    28.188355      5.9233902      5.9233902      0              0              0              0.22243968   
    157000   0.092712803    0.22022637    -4.7312453     -5.2112401     -0.12380098     0.047113132   -0.2511391     -0.16737697    -0.017172431   -0.018589847    0.027054209    28.471653      5.9233902      5.9233902      0              0              0              0.22022637   
    158000   0.10506368     0.21803508    -4.7575083     -5.3333021     -0.14521164    -0.02932635    -0.22455101    -0.18175756    -0.043715272    0.022602778   -0.012888412    28.757798      5.9233902      5.9233902      0              0              0              0.21803508   
    159000   0.10054801     0.21586559    -4.7679677     -5.1387287     -0.10220822    -0.036492309   -0.15729444    -0.11283791     0.0093521924  -0.0014685928   0.014306169    29.046818      5.9233902      5.9233902      0              0              0              0.21586559   
    160000   0.092279513    0.2137177     -4.7963143     -5.3480692     -0.13395867    -0.10756113    -0.18808613    -0.10622874    -0.035291842    0.021335684    0.012539377    29.338744      5.9233902      5.9233902      0              0              0              0.2137177    
    161000   0.10553267     0.21159117    -4.8406361     -5.1225064     -0.084516784   -0.057017589   -0.051744158   -0.14478861    -0.014975307   -0.04403413    -0.018920134    29.633603      5.9233902      5.9233902      0              0              0              0.21159117   
    162000   0.099310049    0.2094858     -4.8281755     -4.8063931     -0.024079028   -0.020076345    0.0027310173  -0.054891756   -0.03957427    -0.00032845136 -0.028641056    29.931426      5.9233902      5.9233902      0              0              0              0.2094858    
    163000   0.10135813     0.20740138    -4.8468048     -4.7595015     -0.012062031    0.03990881     0.0047862775  -0.080881182   -0.019572807    0.0051267951  -0.025027424    30.232242      5.9233902      5.9233902      0              0              0              0.20740138   
    164000   0.088304015    0.2053377     -4.8333061     -4.8251005     -0.023070273   -0.064836803    0.028570147   -0.032944165    0.0057454688  -0.002421116   -0.0083482437   30.536081      5.9233902      5.9233902      0              0              0              0.2053377    
    165000   0.10484638     0.20329456    -4.8346275     -4.9308004     -0.046694199   -0.047077705   -0.030635512   -0.06236938    -0.026179433    0.017159539   -0.058594254    30.842973      5.9233902      5.9233902      0              0              0              0.20329456   
    166000   0.10357553     0.20127175    -4.862874      -4.6559713      0.0095725178   0.069637007    0.0053984511  -0.046317904    0.015747855   -0.0039887844  -0.037107638    31.15295       5.9233902      5.9233902      0              0              0              0.20127175   
    167000   0.093453092    0.19926906    -4.8876672     -4.9889118     -0.043607932   -0.015587367   -0.075315911   -0.039920517   -0.089781612    0.027546946    0.0061696683   31.466043      5.9233902      5.9233902      0              0              0              0.19926906   
    168000   0.10174207     0.1972863     -4.9006543     -4.8633283     -0.020540007    0.03433906    -0.052474327   -0.043484754    0.031198983   -0.0046576396  -0.012032125    31.782282      5.9233902      5.9233902      0              0              0              0.1972863    
    169000   0.10418077     0.19532327    -4.8831946     -4.8699447     -0.025257059    0.015364259   -0.074648407   -0.016487029    0.01097974    -0.0032314721   0.0040417195   32.101699      5.9233902      5.9233902      0              0              0              0.19532327   
    170000   0.09830837     0.19337977    -4.8926606     -5.0900634     -0.060497628   -0.0079673119  -0.081313006   -0.092212566    0.021978048   -0.018568006   -0.0072116028   32.424326      5.9233902      5.9233902      0              0              0              0.19337977   
    171000   0.089652053    0.19145561    -4.9010041     -4.8785093     -0.019373709    0.045379955   -0.047584541   -0.055916542    0.032181971   -0.0039932029  -0.016747034    32.750196      5.9233902      5.9233902      0              0              0              0.19145561   
    172000   0.10482415     0.18955059    -4.8917148     -5.0703735     -0.057745505   -0.066023892   -0.075372546   -0.031840077    0.010113888   -0.0099540165  -0.0026702416   33.079341      5.9233902      5.9233902      0              0              0              0.18955059   
    173000   0.095679794    0.18766453    -4.8895927     -5.0122583     -0.045289881   -0.063735791   -0.02093047    -0.051203383    0.0010688844  -0.029754409   -0.010816173    33.411794      5.9233902      5.9233902      0              0              0              0.18766453   
    174000   0.093235094    0.18579724    -4.9073266     -5.1437696     -0.063440701   -0.013383041   -0.087288204   -0.089650858   -0.026962198   -0.040128034    0.035397731    33.747588      5.9233902      5.9233902      0              0              0              0.18579724   
    175000   0.10102594     0.18394852    -4.8943276     -4.8599686     -0.01946882     0.017068699   -0.068223292   -0.0072518659   0.0021371096  -0.0034499932  -0.0075753782   34.086757      5.9233902      5.9233902      0              0              0              0.18394852   
    176000   0.097681259    0.18211821    -4.9012719     -4.9804847     -0.037251807    0.014799767   -0.097741527   -0.028813661   -0.0020124645  -0.020417911   -0.014377373    34.429335      5.9233902      5.9233902      0              0              0              0.18211821   
    177000   0.099669368    0.1803061     -4.8721984     -5.1477371     -0.069548202   -0.029970522   -0.071648475   -0.10702561     0.026312819    0.012925332    0.035074352    34.775355      5.9233902      5.9233902      0              0              0              0.1803061    
    178000   0.098898957    0.17851202    -4.8940357     -5.1666239     -0.068190762   -0.030664005   -0.035583344   -0.13832494     0.066373633   -0.035519226   -0.020072449    35.124853      5.9233902      5.9233902      0              0              0              0.17851202   
    179000   0.093596635    0.1767358     -4.9038507     -5.0840676     -0.051399583   -0.013008094   -0.065632083   -0.075558572    0.017301459   -0.03011961     0.0060371892   35.477864      5.9233902      5.9233902      0              0              0              0.1767358    
    180000   0.10368768     0.17497725    -4.8950327     -4.9671932     -0.036095305   -0.025191073   -0.033667066   -0.049427777   -0.049358142   -0.021628685    0.0032544036   35.834423      5.9233902      5.9233902      0              0              0              0.17497725   
    181000   0.093165871    0.1732362     -4.8922774     -4.7369436      0.0025644716   0.07249777    -0.0091016704  -0.055702685    0.005121063   -0.0016142119   0.011779703    36.194564      5.9233902      5.9233902      0              0              0              0.1732362    
    182000   0.091049502    0.17151247    -4.9047881     -4.9728974     -0.031807875    0.0069731377  -0.052991291   -0.049405472   -0.015510355    0.0045477361  -0.048325634    36.558326      5.9233902      5.9233902      0              0              0              0.17151247   
    183000   0.10081912     0.16980589    -4.8944333     -4.8981046     -0.023795031   -0.00083350945 -0.036097232   -0.034454352   -0.0054566949  -0.0086538181   0.0060526469   36.925743      5.9233902      5.9233902      0              0              0              0.16980589   
    184000   0.09850874     0.16811629    -4.907615      -5.0195402     -0.039576028   -0.03619823    -0.032532487   -0.049997365   -0.02723329     0.017471292    0.023283277    37.296853      5.9233902      5.9233902      0              0              0              0.16811629   
    185000   0.089612168    0.16644351    -4.8829991     -4.952311      -0.030725181    0.0015399221  -0.0049514005  -0.088764065    0.009162502   -0.00017138984 -0.0047601045   37.671693      5.9233902      5.9233902      0              0              0              0.16644351   
    186000   0.10089243     0.16478737    -4.8892421     -5.0571952     -0.047718694    0.027403962   -0.081911566   -0.088648479    0.018607923   -0.018030349   -0.016365724    38.050299      5.9233902      5.9233902      0              0              0              0.16478737   
    187000   0.10118691     0.16314771    -4.8980593     -4.9428561     -0.029042999   -0.0050017793  -0.026569005   -0.055558213   -0.039040814   -0.020441391   -0.0024476571   38.432711      5.9233902      5.9233902      0              0              0              0.16314771   
    188000   0.10006688     0.16152436    -4.8874285     -5.0256624     -0.042228889   -0.015765625   -0.10142296    -0.0094980812   0.014466071   -0.009788558   -0.039044959    38.818966      5.9233902      5.9233902      0              0              0              0.16152436   
    189000   0.098913944    0.15991717    -4.9051276     -4.7618908     -0.00063854205  0.021691929   -0.026971937    0.003364382    0.0098075199  -0.015557236   -0.037511732    39.209104      5.9233902      5.9233902      0              0              0              0.15991717   
    190000   0.099511919    0.15832596    -4.9083097     -4.8062754     -0.0066910343   0.013018912   -0.029843588   -0.003248427   -0.013571022   -0.023875754    0.039067469    39.603162      5.9233902      5.9233902      0              0              0              0.15832596   
    191000   0.10538258     0.15675059    -4.8956099     -4.8203888     -0.011693934    0.013914103   -0.048745144   -0.0002507626   0.026690755   -0.00012891415 -0.010348273    40.00118       5.9233902      5.9233902      0              0              0              0.15675059   
    192000   0.089887224    0.1551909     -4.8835011     -5.1642036     -0.058529426   -0.02341063    -0.090129633   -0.062048016    0.0083137413   0.024904219   -0.019403649    40.403199      5.9233902      5.9233902      0              0              0              0.1551909    
    193000   0.091280471    0.15364672    -4.8926236     -4.8647403     -0.015134588    0.03354962    -0.030687945   -0.04826544     0.005451607    0.008734245    0.0099630994   40.809257      5.9233902      5.9233902      0              0              0              0.15364672   
    194000   0.11065259     0.15211791    -4.8975573     -4.9660506     -0.032310165    0.011021532   -0.019333378   -0.088618649   -0.027634059   -0.048872386   -0.0068271343   41.219397      5.9233902      5.9233902      0              0              0              0.15211791   
    195000   0.094160899    0.15060431    -4.8890434     -4.8789544     -0.01785977     0.016771252   -0.053315697   -0.017034865   -0.010323614   -0.0049756172  -0.041617986    41.633659      5.9233902      5.9233902      0              0              0              0.15060431   
    196000   0.099205609    0.14910578    -4.8991661     -5.0607535     -0.041973525    3.2542906e-05 -0.061288118   -0.064665       0.023768465    0.0012666969   0.0034943058   42.052084      5.9233902      5.9233902      0              0              0              0.14910578   
    197000   0.10216901     0.14762215    -4.8845614     -5.0181265     -0.038388787   -0.012274786   -0.048492078   -0.054399498   -0.043083398    0.0091090178   0.010922704    42.474715      5.9233902      5.9233902      0              0              0              0.14762215   
    198000   0.099348043    0.14615328    -4.9029288     -5.0013114     -0.032772827    0.028370789   -0.044977188   -0.081712082   -0.0009871656   0.032693025   -0.00055659638  42.901593      5.9233902      5.9233902      0              0              0              0.14615328   
    199000   0.10687002     0.14469903    -4.9058694     -4.9481904     -0.026548915   -0.0071218625  -0.023151143   -0.04937374     0.034156249   -0.0088196699   3.8366013e-05  43.332761      5.9233902      5.9233902      0              0              0              0.14469903   
    200000   0.10309114     0.14325926    -4.8980492     -4.8540047     -0.014302358    0.011137518   -0.013801426   -0.040243165   -0.023050585   -0.053421741   -0.013130495    43.768263      5.9233902      5.9233902      0              0              0              0.14325926   
Loop time of 41.9113 on 1 procs for 200000 steps with 200 atoms

Performance: 824597.794 tau/day, 4771.978 timesteps/s
52.6% CPU use with 1 MPI tasks x 1 OpenMP threads

MPI task timing breakdown:
Section |  min time  |  avg time  |  max time  |%varavg| %total
---------------------------------------------------------------
Pair    | 31.654     | 31.654     | 31.654     |   0.0 | 75.53
Bond    | 0.86435    | 0.86435    | 0.86435    |   0.0 |  2.06
Neigh   | 0.28559    | 0.28559    | 0.28559    |   0.0 |  0.68
Comm    | 1.2211     | 1.2211     | 1.2211     |   0.0 |  2.91
Output  | 1.2878     | 1.2878     | 1.2878     |   0.0 |  3.07
Modify  | 6.1708     | 6.1708     | 6.1708     |   0.0 | 14.72
Other   |            | 0.4281     |            |       |  1.02

Nlocal:            200 ave         200 max         200 min
Histogram: 1 0 0 0 0 0 0 0 0 0
Nghost:            741 ave         741 max         741 min
Histogram: 1 0 0 0 0 0 0 0 0 0
Neighs:          11691 ave       11691 max       11691 min
Histogram: 1 0 0 0 0 0 0 0 0 0

Total # of neighbors = 11691
Ave neighs/atom = 58.455
Ave special neighs/atom = 8.04
Neighbor list builds = 403
Dangerous builds = 0
System init for write_data ...
Generated 0 of 1 mixed pair_coeff terms from geometric mixing rule
WARNING: Not all mixed pair coeffs generated from mixing. Use write_data with 'pair ij' option to store all pair coeffs. (src/write_data.cpp:309)
Total wall time: 0:00:41
0.76875
