LAMMPS (23 Jun 2022)
OMP_NUM_THREADS environment is not set. Defaulting to 1 thread. (src/comm.cpp:98)
  using 1 OpenMP thread(s) per MPI task
Reading data file ...
  orthogonal box = (96.85331 96.85331 96.85331) to (103.14669 103.14669 103.14669)
  1 by 1 by 1 MPI processor grid
  reading atoms ...
  200 atoms
  scanning bonds ...
  4 = max bonds/atom
  reading bonds ...
  203 bonds
Finding 1-2 1-3 1-4 neighbors ...
  special bond factors lj:    0        0        0       
  special bond factors coul:  0        0        0       
     4 = max # of 1-2 neighbors
     4 = max # of 1-3 neighbors
    10 = max # of 1-4 neighbors
    12 = max # of special neighbors
  special bonds CPU = 0.000 seconds
  read_data CPU = 0.004 seconds
Finding 1-2 1-3 1-4 neighbors ...
  special bond factors lj:    0        1        1       
  special bond factors coul:  0        0        0       
     4 = max # of 1-2 neighbors
     4 = max # of 1-3 neighbors
    10 = max # of 1-4 neighbors
    12 = max # of special neighbors
  special bonds CPU = 0.000 seconds
Generated 0 of 1 mixed pair_coeff terms from geometric mixing rule
Neighbor list info ...
  update every 1 steps, delay 0 steps, check yes
  max neighbors/atom: 2000, page size: 100000
  master list distance cutoff = 5.5
  ghost atom cutoff = 5.5
  binsize = 2.75, bins = 3 3 3
  1 neighbor lists, perpetual/occasional/extra = 1 0 0
  (1) pair lj/cut, perpetual
      attributes: half, newton on
      pair build: half/bin/newton
      stencil: half/bin/3d
      bin: standard
Setting up Verlet run ...
  Unit style    : lj
  Current step  : 0
  Time step     : 0.002
WARNING: Inconsistent image flags (src/domain.cpp:819)
Per MPI rank memory allocation (min/avg/max) = 8.742 | 8.742 | 8.742 Mbytes
   Step          Temp         Density         PotEng        Enthalpy        Press           Pxx            Pyy            Pzz            Pxy            Pxz            Pyz             Lx             Ly             Lz             Xy             Yz             Xz          Density    
         0   1.5            0.88261369    -4.2352298     -0.084295932    1.5342906      2.1528785      1.435629       1.0143643     -0.049093944   -0.0348781      0.29758498     6.2933807      6.2933807      6.2933807      0              0              0              0.88261369   
      1000   1.4854893      0.78307079    -3.0109982      0.18629939     0.69779068     0.79477167     0.19590728     1.1026931     -0.11233971    -0.33385477    -0.22521813     6.549486       6.549486       6.549486       0              0              0              0.78307079   
      2000   1.4063552      0.75261157    -2.7588326      1.4956623      1.4747832      1.9164098      1.3473785      1.1605614     -0.15726782    -0.70108847     0.18055491     6.6366757      6.6366757      6.6366757      0              0              0              0.75261157   
      3000   1.5137986      0.77114943    -2.6617464      1.1385626      1.0802854      0.75145745     1.7659613      0.72343742     0.11689621     0.04358003     0.62656423     6.5830635      6.5830635      6.5830635      0              0              0              0.77114943   
      4000   1.3654563      0.7827334     -3.0103757      0.65287684     1.1565306      1.5999497      0.83068992     1.0389523     -0.35130051    -0.066645199   -0.46727657     6.5504269      6.5504269      6.5504269      0              0              0              0.7827334    
      5000   1.5575798      0.81268529    -3.0400806      1.4736098      1.6172457      2.2423237      0.84525793     1.7641554     -0.072131852   -0.1441196      0.31610897     6.4689445      6.4689445      6.4689445      0              0              0              0.81268529   
      6000   1.5385089      0.78473444    -3.0887852      0.97273702     1.2593544      1.2000597      1.2606824      1.3173211     -0.13418165    -0.37919895    -0.26566896     6.5448544      6.5448544      6.5448544      0              0              0              0.78473444   
      7000   1.2281038      0.79793541    -2.9962922      1.1804864      1.7002072      2.1360712      0.7322961      2.2322543     -0.39920727    -0.73020512    -0.027615801    6.508561       6.508561       6.508561       0              0              0              0.79793541   
      8000   1.4011003      0.78311228    -2.8960587     -0.015416318    0.56206119     1.3981656      0.28408727     0.0039306959  -0.5310221      0.43124505     0.18485732     6.5493703      6.5493703      6.5493703      0              0              0              0.78311228   
      9000   1.5002871      0.78247086    -3.0144972      1.1849198      1.3943905      1.5797614      1.0036453      1.5997647     -0.3932397      0.1568269      0.026821922    6.5511594      6.5511594      6.5511594      0              0              0              0.78247086   
     10000   1.3188736      0.80689717    -3.0496181      0.53327258     1.1842844      1.8017303     -0.4922795      2.2434023     -0.44003551     0.3801748      0.24865731     6.4843756      6.4843756      6.4843756      0              0              0              0.80689717   
     11000   1.3773613      0.77895475    -3.0589719      0.27523705     0.90535587     0.85024282     0.54196681     1.323858      -0.45823872    -0.20741866     0.2808269      6.5610017      6.5610017      6.5610017      0              0              0              0.77895475   
     12000   1.3572081      0.81567739    -2.965442       2.1928812      2.3229677      2.3522893      2.0558467      2.5607671      0.80343078    -0.097499412   -0.39551958     6.461025       6.461025       6.461025       0              0              0              0.81567739   
     13000   1.4147935      0.81041301    -3.1053377      1.3413869      1.7203928      2.0497743      1.5646961      1.5467079     -0.099350328    0.3343998      0.40187101     6.4749849      6.4749849      6.4749849      0              0              0              0.81041301   
     14000   1.3333864      0.78921374    -3.1447906      0.32458867     1.061349       1.3127949      0.62995097     1.2413012     -0.12019935    -0.14027609     0.45384684     6.5324488      6.5324488      6.5324488      0              0              0              0.78921374   
     15000   1.3765782      0.76958192    -3.0124899      0.17897935     0.79541627     0.93369285     0.2225855      1.2299705      0.12779033     0.16866564     0.042546047    6.58753        6.58753        6.58753        0              0              0              0.76958192   
     16000   1.2983797      0.81304784    -3.2384632      1.2288072      1.8695951      1.1344709      1.4683327      3.0059817     -0.45558619     0.61709952    -0.15916368     6.4679829      6.4679829      6.4679829      0              0              0              0.81304784   
     17000   1.3845812      0.8203274     -3.0553504      0.097398056    0.81008158     2.1945377     -0.26307828     0.49878534     0.0058458034   0.090587315   -0.74782268     6.4487937      6.4487937      6.4487937      0              0              0              0.8203274    
     18000   1.3552945      0.81011618    -3.2606219      0.4325244      1.2301756      1.5711253      1.7203466      0.39905509    -0.87417459     0.13981192     0.47131784     6.4757756      6.4757756      6.4757756      0              0              0              0.81011618   
     19000   1.2799725      0.78538623    -3.1156641      0.42705154     1.1654822      0.32141664     1.4502552      1.7247748      0.20762972     0.075996859   -0.30357627     6.5430434      6.5430434      6.5430434      0              0              0              0.78538623   
     20000   1.3199193      0.8222861     -3.4075922     -0.78266815     0.48959249    -0.44776083     0.60132882     1.3152095     -0.14902857    -0.31300308    -0.067769332    6.4436693      6.4436693      6.4436693      0              0              0              0.8222861    
     21000   1.3971321      0.83412848    -3.408083       0.39875302     1.3054994      1.1066696      1.5142135      1.295615      -0.33350561     0.19191728     0.25629294     6.4130296      6.4130296      6.4130296      0              0              0              0.83412848   
     22000   1.3166507      0.82236733    -3.2521236      0.034990289    0.98834554    -0.10966587     1.9481048      1.1265977      0.23409464     0.27277597     0.020699052    6.4434571      6.4434571      6.4434571      0              0              0              0.82236733   
     23000   1.2350832      0.80854324    -3.2842236     -0.99669786     0.32647811     0.3549002     -0.44547131     1.0700054     -0.5860772      0.15922597     0.0015297369   6.4799722      6.4799722      6.4799722      0              0              0              0.80854324   
     24000   1.2440205      0.80881011    -3.3464627     -0.53126229     0.70476756     1.4836886      0.086783751    0.54383034     0.49590857     0.41982231    -0.44179843     6.4792594      6.4792594      6.4792594      0              0              0              0.80881011   
     25000   1.3070339      0.82731536    -3.5289681     -1.0242995      0.41660625     0.32974295     0.33508552     0.58499027    -0.061815972   -0.069040978   -0.033409616    6.4305857      6.4305857      6.4305857      0              0              0              0.82731536   
     26000   1.3741361      0.81533474    -3.2994862      0.01156238     0.93404043     0.50658579     1.1160306      1.1795049     -0.08997542     0.11836054     0.12394541     6.4619299      6.4619299      6.4619299      0              0              0              0.81533474   
     27000   1.3073854      0.84749297    -3.5380089      0.10329766     1.3020834      1.2329454      1.7795828      0.89372218     0.25057245     0.19193987    -0.16556212     6.3791409      6.3791409      6.3791409      0              0              0              0.84749297   
     28000   1.1663709      0.84825607    -3.4081263      0.22401329     1.4584846      0.8873469      1.1654584      2.3226484      0.44805993     0.18800651     0.72540545     6.3772274      6.3772274      6.3772274      0              0              0              0.84825607   
     29000   1.3097006      0.83352195    -3.4108386     -0.20014419     0.95170495     0.58186694     1.2384319      1.034816       0.15590797    -0.032189169    0.25162144     6.4145847      6.4145847      6.4145847      0              0              0              0.83352195   
     30000   1.2218233      0.82900491    -3.5293403     -1.303116       0.30345577     0.36275732     0.7855584     -0.2379484     -0.15206044     0.1536428      0.17686685     6.4262141      6.4262141      6.4262141      0              0              0              0.82900491   
     31000   1.1264324      0.86026107    -3.6471598     -0.45771041     1.1795345      1.1531726      0.76316511     1.6222657     -0.64842063     0.26212766     0.12649439     6.3474234      6.3474234      6.3474234      0              0              0              0.86026107   
     32000   1.186121       0.80597292    -3.426258      -2.3822451     -0.53214192    -0.27863957    -0.69563901    -0.62214718    -0.30133989     0.29638193     0.37327719     6.4868533      6.4868533      6.4868533      0              0              0              0.80597292   
     33000   1.198212       0.81634665    -3.3671437     -0.87503747     0.52229471     0.91497839    -0.4643797      1.1162855     -0.44737294    -0.74065219     0.41216666     6.4592588      6.4592588      6.4592588      0              0              0              0.81634665   
     34000   1.1754147      0.86655801    -3.7448647      0.10457003     1.6505002      2.2845147      1.1271149      1.5398709     -0.30301209     0.07769678     0.077165564    6.3320113      6.3320113      6.3320113      0              0              0              0.86655801   
     35000   1.1905124      0.85389898    -3.5282302     -0.19385212     1.209073       1.2322759      1.9583388      0.43660439     0.09947503    -0.13857125    -0.032609572    6.3631486      6.3631486      6.3631486      0              0              0              0.85389898   
     36000   1.1517258      0.85015337    -3.627197      -0.74204207     0.90132032     1.2390033      0.56325617     0.90170147     0.03779728    -0.71941479     0.087788681    6.3724798      6.3724798      6.3724798      0              0              0              0.85015337   
     37000   1.0257936      0.85335281    -3.6345136     -0.66330013     1.1172843      0.004475504    2.1064266      1.2409508      0.32341352    -0.14479867     0.17802552     6.3645058      6.3645058      6.3645058      0              0              0              0.85335281   
     38000   1.1645647      0.82932447    -3.5751829     -1.1298199      0.53321805     0.59640109     0.51741894     0.48583411     0.15690138    -0.1121382     -0.27160868     6.4253886      6.4253886      6.4253886      0              0              0              0.82932447   
     39000   1.2551943      0.86815565    -3.5803094      0.39522134     1.6590875      1.6023391      1.198468       2.1764553     -0.10900915     0.46457489     0.075801273    6.3281247      6.3281247      6.3281247      0              0              0              0.86815565   
     40000   1.0429371      0.83985908    -3.4947317     -1.0461463      0.68105067     0.49900472     0.40141796     1.1427293     -0.066646712    0.19709013    -0.29894083     6.3984103      6.3984103      6.3984103      0              0              0              0.83985908   
     41000   1.0470933      0.84262304    -3.5671472     -0.67466615     1.0185737      1.3004026      0.47943782     1.2758806     -0.023524936   -0.0084197175  -0.31697039     6.3914066      6.3914066      6.3914066      0              0              0              0.84262304   
     42000   1.058356       0.88174336    -3.806555      -1.1848238      0.83535952     0.60198084     0.04485762     1.8592401     -0.44744439    -0.21894515    -0.33759092     6.2954507      6.2954507      6.2954507      0              0              0              0.88174336   
     43000   1.2583422      0.86018034    -3.8326847     -1.0380531      0.71673034     0.32300696     0.47117034     1.3560137     -0.28599035    -0.083566932    0.068245523    6.347622       6.347622       6.347622       0              0              0              0.86018034   
     44000   1.0562511      0.86645015    -3.7281458     -0.38816589     1.3890969      1.0621567      1.9097601      1.195374      -0.36585807     0.11637494     0.24750124     6.332274       6.332274       6.332274       0              0              0              0.86645015   
     45000   0.96591214     0.87619284    -3.7701164     -0.51560552     1.4440351      1.7368857      1.8036914      0.79152823     0.89164101    -0.14187349     0.58493069     6.3087162      6.3087162      6.3087162      0              0              0              0.87619284   
     46000   0.99028461     0.85741345    -3.706893      -1.8946547      0.26052786     0.061491001   -0.16159784     0.88169043    -0.06418994     0.32552634     0.035853059    6.3544426      6.3544426      6.3544426      0              0              0              0.85741345   
     47000   1.1162177      0.89267592    -3.8962187     -0.35563543     1.521305       1.5538474      0.66277611     2.3472916      0.30942997    -0.013743375   -0.32154219     6.269645       6.269645       6.269645       0              0              0              0.89267592   
     48000   0.97253889     0.87838403    -3.7428673     -0.25702439     1.6244744      1.1879042      1.6694735      2.0160454     -0.28265634    -0.022729207    0.052446089    6.303466       6.303466       6.303466       0              0              0              0.87838403   
     49000   1.0016912      0.89663012    -3.9713179     -0.58686805     1.5401054      1.4139014      1.2400113      1.9664037      0.32781958     0.17193728     0.2077454      6.2604149      6.2604149      6.2604149      0              0              0              0.89663012   
     50000   0.8649712      0.88354956    -4.0999204     -2.337082       0.37901774     1.065964      -0.43963958     0.51072884     0.043883884   -0.014575271    0.019155391    6.2911579      6.2911579      6.2911579      0              0              0              0.88354956   
     51000   1.0333684      0.88521643    -4.0221051     -1.781384       0.56204697     0.84213681     0.065848948    0.77815515    -0.34441751     0.35178792     0.2132483      6.2872067      6.2872067      6.2872067      0              0              0              0.88521643   
     52000   1.1062765      0.88934446    -4.0023402     -1.4820965      0.70268397     1.2296724      0.28671841     0.59166113    -0.12883746     0.22676811    -0.45864526     6.2774639      6.2774639      6.2774639      0              0              0              0.88934446   
     53000   0.95681935     0.89779738    -4.1288098     -0.99650646     1.3909742      1.0898371      1.4121675      1.670918      -0.16578345     0.030409521   -0.14279894     6.2577006      6.2577006      6.2577006      0              0              0              0.89779738   
     54000   0.93865689     0.87114296    -3.9203895     -1.9416111      0.45761375     0.30655561     0.86757951     0.19870613     0.060299987    0.37602157    -0.20615351     6.320883       6.320883       6.320883       0              0              0              0.87114296   
     55000   0.99822293     0.89977114    -4.0845082     -0.65026272     1.5904663      1.3682322      2.1890923      1.2140744      0.21587959     0.08363595    -0.118569       6.2531216      6.2531216      6.2531216      0              0              0              0.89977114   
     56000   0.92477311     0.89134716    -4.2315066     -2.1921876      0.53407513     0.89190041    -0.30455712     1.0148821      0.084002435   -0.13118702    -0.37840938     6.272759       6.272759       6.272759       0              0              0              0.89134716   
     57000   0.86267621     0.89431559    -4.0766819     -1.4536528      1.0857681      1.2140063      1.0098756      1.0334224      0.45319392     0.21515355     0.012511421    6.265811       6.265811       6.265811       0              0              0              0.89431559   
     58000   0.83818935     0.88735265    -3.9437326     -1.5062361      0.95712994     1.3295665      0.87519412     0.66662917    -0.36146637     0.39938993    -0.23457636     6.2821573      6.2821573      6.2821573      0              0              0              0.88735265   
     59000   0.99245453     0.88923178    -4.060788      -1.3695465      0.97815752     1.5021762     -0.003735345    1.4360317     -0.054276014   -0.25788858     0.42292719     6.2777291      6.2777291      6.2777291      0              0              0              0.88923178   
     60000   0.9035482      0.90738638    -4.2446952     -1.9644135      0.76858603     0.37933221     1.489303       0.43712289     0.17430657    -0.092170356   -0.090336919    6.2355793      6.2355793      6.2355793      0              0              0              0.90738638   
     61000   0.96406308     0.92149888    -4.1741036     -0.50109868     1.8715984      1.7181604      1.8176358      2.0789989     -0.10641655    -0.55993557    -0.066081202    6.2035834      6.2035834      6.2035834      0              0              0              0.92149888   
     62000   0.92500584     0.92054781    -4.2772913     -1.6785899      1.0194064      0.47528092     1.8476571      0.7352813      0.12091923     0.32986926    -0.029122819    6.2057191      6.2057191      6.2057191      0              0              0              0.92054781   
     63000   0.93788579     0.89901977    -4.2770514     -2.5357447      0.27911474     0.11772073     0.60852018     0.1111033     -0.07796394    -0.55718676     0.70358348     6.2548632      6.2548632      6.2548632      0              0              0              0.89901977   
     64000   0.87003449     0.92865211    -4.2872163     -2.3            0.58141202     1.161502       0.52462072     0.05811335     0.62055794     0.32730029    -0.26489533     6.187614       6.187614       6.187614       0              0              0              0.92865211   
     65000   0.80897398     0.92872703    -4.4159537     -2.1170295      0.92157627     0.8039882      0.6478806      1.31286       -0.026175753   -0.37927741     0.29533998     6.1874476      6.1874476      6.1874476      0              0              0              0.92872703   
     66000   0.90898636     0.90396384    -4.2434587     -2.1159116      0.63350192     0.4706833      0.16902777     1.2607947     -0.058758162    0.23439455    -0.62171012     6.243439       6.243439       6.243439       0              0              0              0.90396384   
     67000   0.84367758     0.90943127    -4.3365476     -2.3720359      0.58312977     0.66941672     0.064331145    1.0156415      0.33030916    -0.59993725    -0.35058947     6.2309022      6.2309022      6.2309022      0              0              0              0.90943127   
     68000   0.78637093     0.93304913    -4.4509119     -2.1267418      0.97589429     1.1501297      0.49076544     1.2867877     -0.11755053     0.70924889    -0.317677       6.1778789      6.1778789      6.1778789      0              0              0              0.93304913   
     69000   0.84955927     0.89957465    -4.3799334     -2.7816158      0.27015896     0.64922055    -0.28780342     0.44905974     0.15187534     0.23305894     0.34125711     6.2535769      6.2535769      6.2535769      0              0              0              0.89957465   
     70000   0.78990042     0.93618654    -4.4345865     -1.5061904      1.4889363      1.7365673      0.85723682     1.8730047      0.53392322    -0.21773493    -0.60487989     6.1709699      6.1709699      6.1709699      0              0              0              0.93618654   
     71000   0.84002084     0.92467579    -4.3614761     -1.3743426      1.457123       1.9290568      0.88008676     1.5622253     -0.11363524    -0.24359836     0.17531251     6.1964707      6.1964707      6.1964707      0              0              0              0.92467579   
     72000   0.81528992     0.91975377    -4.3817302     -2.2957288      0.72675696     1.3035138      0.13254353     0.74421355    -0.16814352     0.22130093    -0.49743795     6.2075044      6.2075044      6.2075044      0              0              0              0.91975377   
     73000   0.77024614     0.91631304    -4.4733232     -3.0849884      0.19887523     0.0096893956   0.032103798    0.55483249    -0.049188598    0.58984873    -0.57871114     6.2152644      6.2152644      6.2152644      0              0              0              0.91631304   
     74000   0.86596081     0.92867415    -4.4825414     -2.1324969      0.89287629     1.3181653      0.44900134     0.91146228    -0.015619349    0.27574079    -0.01844573     6.187565       6.187565       6.187565       0              0              0              0.92867415   
     75000   0.82089951     0.93393387    -4.4835008     -2.017394       1.0535744      0.89558808     1.0900912      1.175044      -0.017482667    0.097555065    0.22598007     6.1759274      6.1759274      6.1759274      0              0              0              0.93393387   
     76000   0.7027013      0.95563999    -4.6510859     -2.2140976      1.2060234      1.1784231      1.258146       1.1815012     -0.49865633    -0.28604661     0.14379587     6.1288095      6.1288095      6.1288095      0              0              0              0.95563999   
     77000   0.73536668     0.93256497    -4.5463009     -2.9307945      0.43912933     0.14515917     0.84723593     0.3249929     -0.35314248    -0.011791486    0.32159575     6.1789478      6.1789478      6.1789478      0              0              0              0.93256497   
     78000   0.76084219     0.99194734    -4.7320861     -0.66116954     2.6470201      3.0707425      1.9771585      2.8931594      0.30346355     0.25380327    -0.72304989     6.0531024      6.0531024      6.0531024      0              0              0              0.99194734   
     79000   0.72266629     0.94024192    -4.6478351     -3.3548984      0.18322521    -0.30329066     0.40600665     0.44695965     0.16725658     0.43084952     0.44009195     6.1620851      6.1620851      6.1620851      0              0              0              0.94024192   
     80000   0.68395625     0.95539593    -4.7643683     -2.7864763      0.83127027     1.0663422      0.31672388     1.1107448      0.49909119     0.035575088    0.17059807     6.1293313      6.1293313      6.1293313      0              0              0              0.95539593   
     81000   0.73767774     0.95468398    -4.7021784     -2.642266       0.83224862     1.2094026     -0.23932219     1.5266654      0.5011398     -0.11286374    -0.067630999    6.1308546      6.1308546      6.1308546      0              0              0              0.95468398   
     82000   0.70257088     0.96188527    -4.7979887     -2.5677936      1.0332468      1.2981871      0.85873146     0.94282181    -0.13378995    -0.60877415    -0.030937313    6.1155164      6.1155164      6.1155164      0              0              0              0.96188527   
     83000   0.62268285     0.95787571    -4.7745378     -2.9369794      0.79086066     0.93449313     0.75456709     0.68352175    -0.092241456   -0.19703665     0.46757572     6.1240375      6.1240375      6.1240375      0              0              0              0.95787571   
     84000   0.67090756     0.96798276    -4.8302728     -2.5524797      1.123268       0.998281       1.3988004      0.97272244     0.10822911     0.18549509     0.2528943      6.1026484      6.1026484      6.1026484      0              0              0              0.96798276   
     85000   0.69452463     0.95791376    -4.8906701     -3.6089575      0.21347066     0.21044005     0.14513482     0.28483712     0.71870526    -0.29624356     0.39932146     6.1239564      6.1239564      6.1239564      0              0              0              0.95791376   
     86000   0.64212384     0.9924299     -4.9522903     -2.675526       1.1894674      1.6881584      0.8326468      1.0475969      0.32892433     0.13996802     0.20398886     6.0521212      6.0521212      6.0521212      0              0              0              0.9924299    
     87000   0.64308976     0.94857207    -4.7692599     -3.0228495      0.67831438     0.79756761     0.22331199     1.0140635     -0.041199612   -0.063427227    0.24982059     6.143994       6.143994       6.143994       0              0              0              0.94857207   
     88000   0.61073149     0.99090633    -4.9108026     -1.7382754      2.0367723      2.5342867      2.0312428      1.5447874      0.38746095    -0.16150317     0.72983112     6.0552214      6.0552214      6.0552214      0              0              0              0.99090633   
     89000   0.67885347     0.96133398    -4.835788      -3.380073       0.38674132     1.4029445     -0.26235053     0.019630003   -0.13157459     0.065095063    0.33265664     6.1166852      6.1166852      6.1166852      0              0              0              0.96133398   
     90000   0.52193964     0.98809364    -4.9000904     -3.0167398      0.99200622     0.49580707     1.4464046      1.033807      -0.1913141      0.099400773    0.25181173     6.0609615      6.0609615      6.0609615      0              0              0              0.98809364   
     91000   0.62816628     0.98120844    -4.955534      -3.1409815      0.78230353     1.2341251      0.3914467      0.7213388      0.26923729    -0.18607978    -0.059487769    6.0751052      6.0751052      6.0751052      0              0              0              0.98120844   
     92000   0.62010838     0.98549609    -5.0693119     -3.3425013      0.71788806     0.63257975     0.15368853     1.3673959      0.54738399     0.19141502     0.27459936     6.0662819      6.0662819      6.0662819      0              0              0              0.98549609   
     93000   0.57866884     0.97731481    -5.0335908     -3.5037573      0.59187098     0.42491864     1.0696246      0.28106967    -0.4235876     -0.06806574    -0.18995304     6.0831623      6.0831623      6.0831623      0              0              0              0.97731481   
     94000   0.57519174     0.99294187    -5.0584444     -2.7539653      1.3052721      1.3583227      1.5467683      1.0107253     -0.098770333   -0.24065436    -0.4287898      6.0510808      6.0510808      6.0510808      0              0              0              0.99294187   
     95000   0.60236971     0.99409687    -4.9961885     -2.3684044      1.5623112      0.6845863      1.9013995      2.1009477     -0.52857277    -0.35256607    -0.19740201     6.0487364      6.0487364      6.0487364      0              0              0              0.99409687   
     96000   0.55994757     0.98744162    -5.0656761     -3.320014       0.81682999     1.0581367      0.50471331     0.88763999     0.3554658      0.54441278     0.1508485      6.0622953      6.0622953      6.0622953      0              0              0              0.98744162   
     97000   0.53856387     0.98750023    -5.1355643     -3.6194178      0.63948714     1.3210532     -0.25378978     0.85119797     0.43190643    -0.083292129   -0.041506977    6.0621753      6.0621753      6.0621753      0              0              0              0.98750023   
     98000   0.44271973     0.99616041    -5.0857727     -2.9938122      1.2960964      1.8284714      1.4802606      0.57955723     0.23075618    -0.17331408    -0.18114598     6.0445569      6.0445569      6.0445569      0              0              0              0.99616041   
     99000   0.50337629     0.98994351    -5.1265134     -3.826986       0.49338634     0.73352087     0.19801146     0.54862669     0.18601809    -0.43528966     0.78036679     6.0571839      6.0571839      6.0571839      0              0              0              0.98994351   
    100000   0.478894       1.0018476     -5.1542745     -2.9631023      1.3446826      1.2330884      1.1774974      1.6234619      0.053167696   -0.035853965    0.70317606     6.0330973      6.0330973      6.0330973      0              0              0              1.0018476    
    101000   0.51381491     0.99225565    -5.0997236     -3.6505445      0.6154784      0.98166473     0.3824245      0.48234595     0.39083565    -0.53453182     0.8799632      6.0524754      6.0524754      6.0524754      0              0              0              0.99225565   
    102000   0.48321098     1.0080918     -5.1978737     -3.1922738      1.1770915      1.2028087      1.3819861      0.94647956     0.1929162     -0.073465158    0.72308518     6.0206152      6.0206152      6.0206152      0              0              0              1.0080918    
    103000   0.47870459     1.0045572     -5.239961      -3.3887578      1.0381063      0.87961013     0.60484011     1.6298686     -0.29816348    -0.26516624    -0.22813764     6.0276682      6.0276682      6.0276682      0              0              0              1.0045572    
    104000   0.44059187     1.0026837     -5.271764      -3.5043784      1.0116188      0.83763069     0.87449788     1.3227278     -0.23641307    -0.20879402     0.23692654     6.0314201      6.0314201      6.0314201      0              0              0              1.0026837    
    105000   0.49535214     1.0088269     -5.2578586     -3.4647458      0.966456       0.82006998     0.38244116     1.6968569     -0.35055603     0.22293785     0.17521323     6.0191524      6.0191524      6.0191524      0              0              0              1.0088269    
    106000   0.42502335     1.0203686     -5.2752354     -2.8805712      1.6328837      1.9436507      1.4057058      1.5492945     -0.06418381    -0.20957324    -0.035129519    5.9963715      5.9963715      5.9963715      0              0              0              1.0203686    
    107000   0.40600011     1.0087841     -5.3209577     -4.0642764      0.5967656      0.64890322     0.13568244     1.0057112     -0.0020967625  -0.4498397      0.62189464     6.0192376      6.0192376      6.0192376      0              0              0              1.0087841    
    108000   0.45029341     1.0179463     -5.4170529     -3.6811716      0.9844636      0.54720364     0.77268864     1.6334985      0.24796735    -0.14839199     0.25514644     6.0011241      6.0011241      6.0011241      0              0              0              1.0179463    
    109000   0.46182666     1.0101031     -5.3077148     -3.5103361      1.0175434      0.42749931     1.0946754      1.5304554     -0.12139264     0.16998029     0.33361227     6.0166165      6.0166165      6.0166165      0              0              0              1.0101031    
    110000   0.40084914     1.0261973     -5.389588      -3.4027921      1.2953676      1.1123328      0.90250557     1.8712644     -0.062037111   -0.76864766     0.4630394      5.9849969      5.9849969      5.9849969      0              0              0              1.0261973    
    111000   0.36315223     1.0145315     -5.3789658     -3.8442423      0.91558595     1.0853542      0.49228475     1.1691189     -0.12351608    -0.48930423     0.35335568     6.0078496      6.0078496      6.0078496      0              0              0              1.0145315    
    112000   0.37339443     1.0228725     -5.4504205     -3.887482       0.93513545     0.98360932     0.73741661     1.0843804     -0.51591253     0.11423837     0.49937442     5.9914747      5.9914747      5.9914747      0              0              0              1.0228725    
    113000   0.37508254     1.0175847     -5.4102973     -3.9159297      0.86453705     1.3259862      0.57840734     0.68921757    -0.22168371    -0.2315928      0.24755065     6.0018349      6.0018349      6.0018349      0              0              0              1.0175847    
    114000   0.33626046     1.0239649     -5.4116246     -3.8834284      0.95538487     1.2886207      0.7072663      0.87026759    -0.38930936    -0.093855448    0.2378285      5.9893432      5.9893432      5.9893432      0              0              0              1.0239649    
    115000   0.35265218     1.0220514     -5.4514734     -3.9000338      0.9524648      1.0406685      0.87452074     0.9422052     -0.36041451    -0.26600257     0.46421635     5.9930787      5.9930787      5.9930787      0              0              0              1.0220514    
    116000   0.29673233     1.0311032     -5.4349659     -3.4295083      1.4647146      1.47138        1.4936075      1.4291562      0.21874063    -0.16384019     0.13775493     5.9754899      5.9754899      5.9754899      0              0              0              1.0311032    
    117000   0.32947826     1.0194919     -5.4938567     -4.2116825      0.73257709     0.49566585     0.99124299     0.71082244    -0.068680697   -0.085619353    0.45663033     5.9980898      5.9980898      5.9980898      0              0              0              1.0194919    
    118000   0.33408216     1.0276964     -5.4518496     -3.8600057      1.0213679      0.90572806     0.81348943     1.3448862     -0.045293261   -0.1296339      0.61984297     5.9820855      5.9820855      5.9820855      0              0              0              1.0276964    
    119000   0.33108873     1.0359628     -5.5232608     -3.5239455      1.4175413      1.401228       1.140259       1.7111369     -0.59200045     0.039053591    0.18606556     5.9661317      5.9661317      5.9661317      0              0              0              1.0359628    
    120000   0.32882022     1.0309733     -5.5779829     -4.3359618      0.70411442     1.3092088      0.21985258     0.5832819     -0.36969691     0.0073376766   0.31514683     5.9757409      5.9757409      5.9757409      0              0              0              1.0309733    
    121000   0.27650263     1.0288442     -5.5434179     -4.2261741      0.84604998     1.1079602      0.28541064     1.1447791     -0.21169084     0.001892025    0.2181461      5.9798602      5.9798602      5.9798602      0              0              0              1.0288442    
    122000   0.27700588     1.0386928     -5.575301      -3.7919129      1.2936039      1.4067343      1.1160208      1.3580565     -0.57364556    -0.25794468     0.76008717     5.9609003      5.9609003      5.9609003      0              0              0              1.0386928    
    123000   0.26986211     1.036394      -5.5820229     -3.8978158      1.2073404      1.1247213      1.2273059      1.2699941     -0.38448779    -0.3644273      0.25420887     5.9653043      5.9653043      5.9653043      0              0              0              1.036394     
    124000   0.29727078     1.0352723     -5.5694442     -3.9771995      1.0809825      1.6989674      0.14180903     1.4021709     -0.21331758    -0.14930641     0.45026344     5.9674578      5.9674578      5.9674578      0              0              0              1.0352723    
    125000   0.25478815     1.0371593     -5.6256808     -4.2219463      0.96499492     1.3398071      0.43397593     1.1212017     -0.63118067    -0.388627       0.43286106     5.9638366      5.9638366      5.9638366      0              0              0              1.0371593    
    126000   0.23593472     1.0319616     -5.6444444     -4.747001       0.51158165     1.0390647      0.22550594     0.27017428    -0.10513242    -0.24801546     0.130159       5.9738326      5.9738326      5.9738326      0              0              0              1.0319616    
    127000   0.2401915      1.0404888     -5.6663206     -4.2809848      0.97129625     0.98588903     0.48029836     1.4477014     -0.18342002    -0.42142145     0.1467102      5.9574685      5.9574685      5.9574685      0              0              0              1.0404888    
    128000   0.24000306     1.0431924     -5.6178744     -4.014559       1.1808093      1.3171463      0.96091779     1.2643637     -0.23763638    -0.65176875     0.36220739     5.9523175      5.9523175      5.9523175      0              0              0              1.0431924    
    129000   0.20531399     1.0410034     -5.6858102     -4.6890153      0.65333731     0.7324401      0.22452076     1.0030511     -0.298502      -0.28891007    -0.048839549    5.9564868      5.9564868      5.9564868      0              0              0              1.0410034    
    130000   0.20181299     1.0366999     -5.662135      -4.8741508      0.45876636     0.82619781    -0.053595543    0.60369681    -0.62325681    -0.19546009     0.19120419     5.9647175      5.9647175      5.9647175      0              0              0              1.0366999    
    131000   0.18540978     1.0557178     -5.7219685     -4.317611       1.0822388      1.3282822      0.62082393     1.2976103     -0.36227618    -0.03420687     0.0077632282   5.9286837      5.9286837      5.9286837      0              0              0              1.0557178    
    132000   0.17936807     1.0515987     -5.6916841     -4.2153209      1.1554741      1.3828164      0.99598648     1.0876193     -0.64864648     0.037483758    0.27393933     5.9364144      5.9364144      5.9364144      0              0              0              1.0515987    
    133000   0.17407448     1.0483601     -5.7476224     -4.4540667      0.98521982     1.2532722      0.32415579     1.3782315     -0.65983253     0.14122986     0.014451954    5.942521       5.942521       5.942521       0              0              0              1.0483601    
    134000   0.16355215     1.0517502     -5.760041      -4.6555051      0.82269265     0.94915242     0.31934475     1.1995808     -0.60280956     0.021800921   -0.051193533    5.9361295      5.9361295      5.9361295      0              0              0              1.0517502    
    135000   0.13793377     1.0562461     -5.7805307     -4.6103674      0.92594102     1.2058467      0.71798253     0.85399382    -0.36448538    -0.20979964     0.14016473     5.927695       5.927695       5.927695       0              0              0              1.0562461    
    136000   0.14850455     1.0482171     -5.773964      -4.6255149      0.88317631     0.96995149     0.61931994     1.0602575     -0.60956887    -0.17445324     0.27676018     5.9427913      5.9427913      5.9427913      0              0              0              1.0482171    
    137000   0.12801523     1.0596379     -5.8064593     -4.4852562      1.0886723      1.4674502      0.61223654     1.1863302     -0.733474      -0.014707305    0.21484686     5.9213636      5.9213636      5.9213636      0              0              0              1.0596379    
    138000   0.12192374     1.0614093     -5.7913735     -4.3315928      1.2329808      1.1539242      0.99341365     1.5516047     -0.71802782     0.055798689   -0.07782683     5.9180676      5.9180676      5.9180676      0              0              0              1.0614093    
    139000   0.10427294     1.0532298     -5.8274921     -4.872475       0.76540104     1.2565054      0.08571736     0.95398032    -0.51601444    -0.072259642    0.10183329     5.9333483      5.9333483      5.9333483      0              0              0              1.0532298    
    140000   0.10824802     1.0585507     -5.8566654     -4.6280421      1.0268549      1.3470155      0.4760575      1.2574916     -0.59801653     0.050192601   -0.030051649    5.9233902      5.9233902      5.9233902      0              0              0              1.0585507    
Loop time of 73.4889 on 1 procs for 140000 steps with 200 atoms

Performance: 329192.466 tau/day, 1905.049 timesteps/s
49.9% CPU use with 1 MPI tasks x 1 OpenMP threads

MPI task timing breakdown:
Section |  min time  |  avg time  |  max time  |%varavg| %total
---------------------------------------------------------------
Pair    | 64.806     | 64.806     | 64.806     |   0.0 | 88.19
Bond    | 1.0576     | 1.0576     | 1.0576     |   0.0 |  1.44
Neigh   | 0.33932    | 0.33932    | 0.33932    |   0.0 |  0.46
Comm    | 3.4358     | 3.4358     | 3.4358     |   0.0 |  4.68
Output  | 1.039      | 1.039      | 1.039      |   0.0 |  1.41
Modify  | 2.011      | 2.011      | 2.011      |   0.0 |  2.74
Other   |            | 0.7999     |            |       |  1.09

Nlocal:            200 ave         200 max         200 min
Histogram: 1 0 0 0 0 0 0 0 0 0
Nghost:           4296 ave        4296 max        4296 min
Histogram: 1 0 0 0 0 0 0 0 0 0
Neighs:          61924 ave       61924 max       61924 min
Histogram: 1 0 0 0 0 0 0 0 0 0

Total # of neighbors = 61924
Ave neighs/atom = 309.62
Ave special neighs/atom = 8.4
Neighbor list builds = 111
Dangerous builds = 0
System init for write_data ...
Generated 0 of 1 mixed pair_coeff terms from geometric mixing rule
WARNING: Not all mixed pair coeffs generated from mixing. Use write_data with 'pair ij' option to store all pair coeffs. (src/write_data.cpp:309)
Total wall time: 0:01:13
