Generated by ZY

200 atoms
2 atom types
203 bonds
2 bond types

96.8533096291860858 103.1466903708139142 xlo xhi
96.8533096291860858 103.1466903708139142 ylo yhi
96.8533096291860858 103.1466903708139142 zlo zhi

Masses

1 1.000
2 1.500

Atoms # full

1 1 1 0.000000 99.832613 100.798131 100.047353 0 -1 -1
2 1 1 0.000000 100.135412 100.258150 99.002194 0 -1 -1
3 2 1 0.000000 101.288944 101.235951 102.499598 -1 -1 -2
4 2 1 0.000000 101.629540 100.807652 97.211263 -1 -1 -1
5 3 1 0.000000 102.195959 98.533960 100.792990 -1 -3 0
6 3 1 0.000000 102.814758 98.207694 99.894673 -1 -3 0
7 4 1 0.000000 100.718215 98.775441 97.185997 1 0 0
8 4 1 0.000000 99.975021 98.113004 97.876176 1 0 0
9 5 1 0.000000 102.608524 100.072396 100.353617 0 -1 0
10 5 1 0.000000 102.618783 100.685466 99.331751 0 -1 0
11 6 1 0.000000 98.880193 96.980661 103.110567 0 -3 0
12 6 1 0.000000 99.854544 96.861209 102.524972 0 -3 0
13 7 1 0.000000 101.544810 98.111910 100.127409 1 -2 1
14 7 1 0.000000 100.526688 98.685777 100.169469 1 -2 1
15 8 1 0.000000 98.726080 97.031279 97.895971 -2 1 0
16 8 1 0.000000 98.819346 98.134656 98.107288 -1 0 0
17 9 1 0.000000 98.966851 99.187787 98.437958 0 -1 1
18 9 1 0.000000 99.087942 100.126125 99.057515 0 -1 1
19 10 1 0.000000 100.313130 101.779266 100.434585 -1 -2 1
20 10 1 0.000000 101.229746 102.479126 100.814379 -1 -2 1
21 11 1 0.000000 101.336032 96.854666 99.142673 -1 1 0
22 11 1 0.000000 102.288869 97.288832 99.647481 -1 1 0
23 12 1 0.000000 97.781889 98.771322 97.608417 0 0 -1
24 12 1 0.000000 96.936386 98.441718 96.913114 0 0 -1
25 13 1 0.000000 98.684968 101.113624 102.620296 -2 -2 -1
26 13 1 0.000000 99.732245 101.575854 102.153192 -2 -2 -1
27 14 1 0.000000 99.698028 98.646018 101.516936 1 0 0
28 14 1 0.000000 100.621748 97.834856 101.537861 1 0 0
29 15 1 0.000000 102.443860 99.682376 98.865160 -1 -1 1
30 15 1 0.000000 97.307078 99.510567 99.036987 -1 0 1
31 16 1 0.000000 100.718317 102.236857 102.641057 1 0 -1
32 16 1 0.000000 101.119236 102.782297 97.323688 2 -1 0
33 17 1 0.000000 102.922801 96.870612 103.055777 1 -2 -2
34 17 1 0.000000 102.179512 102.687283 97.610465 0 -2 -1
35 18 1 0.000000 98.989049 99.427250 101.136997 1 -1 0
36 18 1 0.000000 98.906169 99.340464 102.325499 1 -1 0
37 19 1 0.000000 97.781442 97.646098 98.055747 1 0 1
38 19 1 0.000000 96.863624 98.427413 98.013440 1 0 1
39 20 1 0.000000 102.214908 97.928933 102.597942 2 -1 0
40 20 1 0.000000 102.522994 97.732279 97.425104 2 -1 1
41 21 1 0.000000 101.163183 100.394974 98.493172 1 -1 -1
42 21 1 0.000000 101.532305 99.311800 98.713465 1 -1 -1
43 22 1 0.000000 99.850313 99.305455 98.032005 -1 -1 0
44 22 1 0.000000 99.773629 99.256774 99.158424 -1 -1 0
45 23 1 0.000000 99.578806 97.598875 101.797449 1 -1 -2
46 23 1 0.000000 99.283782 98.467349 102.575976 1 -1 -2
47 24 1 0.000000 102.257307 98.817157 97.037651 0 0 0
48 24 1 0.000000 101.398575 98.715935 102.610249 0 0 -1
49 25 1 0.000000 99.579580 100.742390 101.179506 0 0 -1
50 25 1 0.000000 98.542336 101.200120 101.461808 0 0 -1
51 26 1 0.000000 98.363926 102.255061 101.291467 -1 0 0
52 26 1 0.000000 97.329292 102.194649 100.661899 -1 0 0
53 27 1 0.000000 102.850129 97.662779 100.846298 -1 -2 1
54 27 1 0.000000 103.001915 97.904805 101.924890 -1 -2 1
55 28 1 0.000000 100.472708 100.489223 97.705685 -1 -1 1
56 28 1 0.000000 99.327657 100.425403 97.943338 -1 -1 1
57 29 1 0.000000 100.482096 103.009945 101.629996 0 -3 0
58 29 1 0.000000 99.989972 103.144872 100.522612 -2 -1 0
59 30 1 0.000000 102.142191 98.638465 98.172303 -1 1 0
60 30 1 0.000000 101.594183 97.968289 99.012794 -1 1 0
61 31 1 0.000000 100.514263 100.674981 102.016296 0 0 -2
62 31 1 0.000000 99.598358 100.486149 102.724141 0 0 -2
63 32 1 0.000000 103.030713 97.036863 98.012923 -1 0 0
64 32 1 0.000000 102.426680 102.833740 98.836015 -1 -1 0
65 33 1 0.000000 97.430735 102.552410 102.841573 -1 0 -1
66 33 1 0.000000 97.774332 101.520010 96.937060 -1 0 0
67 34 1 0.000000 101.019938 97.223948 100.611501 1 -1 -1
68 34 1 0.000000 101.698779 97.424878 101.578679 1 -1 -1
69 35 1 0.000000 102.570485 97.702768 98.688570 0 -1 0
70 35 1 0.000000 97.262854 98.307180 99.007908 0 0 0
71 36 1 0.000000 101.884867 102.275255 99.777679 0 -1 1
72 36 1 0.000000 101.278273 101.463588 100.451652 0 -1 1
73 37 1 0.000000 101.904329 99.734975 97.725150 -1 0 -1
74 37 1 0.000000 100.846107 99.558455 97.917079 -1 0 -1
75 38 1 0.000000 99.410087 101.504122 97.762734 -1 -1 -1
76 38 1 0.000000 100.306838 101.215301 98.561472 -1 -1 -1
77 39 1 0.000000 100.757317 102.833723 99.923964 0 0 0
78 39 1 0.000000 100.302744 97.526133 99.552788 1 0 0
79 40 1 0.000000 102.647614 101.868773 97.234469 0 -2 1
80 40 1 0.000000 97.361495 102.200281 97.804004 0 -1 1
81 41 1 0.000000 98.100959 100.252315 99.159833 -2 1 -1
82 41 1 0.000000 97.369941 101.136978 99.023928 -2 1 -1
83 42 1 0.000000 98.638144 97.692917 102.263592 0 0 -1
84 42 1 0.000000 98.121787 98.726705 102.601224 0 0 -1
85 43 1 0.000000 97.948299 98.974517 101.299163 1 0 0
86 43 1 0.000000 98.685888 98.032847 101.288885 1 0 0
87 44 1 0.000000 98.842458 102.242137 99.347504 -1 -1 0
88 44 1 0.000000 98.425283 97.031377 99.104566 0 -1 0
89 45 1 0.000000 101.564725 100.597896 101.667674 -1 0 0
90 45 1 0.000000 100.609161 100.326654 100.996244 -1 0 0
91 46 1 0.000000 103.040957 101.660788 99.651328 0 -2 1
92 46 1 0.000000 97.944300 101.763466 99.946624 -1 0 1
93 47 1 0.000000 97.749330 102.762269 99.816532 1 0 1
94 47 1 0.000000 97.059890 97.138520 99.073506 2 0 1
95 48 1 0.000000 97.820679 101.543035 102.170436 0 0 0
96 48 1 0.000000 97.305363 102.564491 101.829365 0 0 0
97 49 1 0.000000 98.184398 103.061203 102.356838 1 0 -1
98 49 1 0.000000 97.985956 103.071633 97.222813 1 0 0
99 50 1 0.000000 97.515540 97.073450 101.192942 0 0 0
100 50 1 0.000000 102.760240 102.955833 101.053042 -1 -1 0
101 51 1 0.000000 101.563468 99.347877 100.267577 1 1 1
102 51 1 0.000000 100.566675 99.323439 101.003215 1 1 1
103 52 1 0.000000 102.473601 102.001141 100.662728 0 2 -1
104 52 1 0.000000 102.411911 100.846564 101.179109 0 2 -1
105 53 1 0.000000 99.748270 102.993982 97.456402 0 0 -1
106 53 1 0.000000 99.340776 102.342039 98.330848 0 0 -1
107 54 1 0.000000 99.462067 97.689594 100.716404 0 -1 0
108 54 1 0.000000 99.477888 98.812344 100.432821 0 -1 0
109 55 1 0.000000 98.187416 102.435036 98.543654 0 1 1
110 55 1 0.000000 97.125587 102.389399 98.909313 1 0 1
111 56 1 0.000000 97.967478 99.644737 100.366029 0 0 -1
112 56 1 0.000000 97.867246 100.885705 100.450649 0 0 -1
113 57 1 0.000000 101.987144 99.746142 102.557323 -1 -2 -1
114 57 1 0.000000 102.748713 100.168839 96.994601 -1 -2 0
115 58 1 0.000000 99.148075 98.872079 97.325498 0 0 -1
116 58 1 0.000000 98.384531 98.005724 96.964819 0 0 -1
117 59 1 0.000000 97.782533 97.685968 99.651317 2 0 0
118 59 1 0.000000 97.822873 98.087354 100.699809 2 0 0
119 60 1 0.000000 102.861147 102.096078 102.560516 1 2 0
120 60 1 0.000000 101.801311 102.101480 102.916802 1 2 0
121 61 1 0.000000 102.892565 99.284236 99.785182 1 -2 -1
122 61 1 0.000000 97.198829 100.308363 99.831902 1 -1 -1
123 62 1 0.000000 98.741639 99.398590 99.720924 1 1 0
124 62 1 0.000000 98.406674 98.465556 99.046367 1 1 0
125 63 1 0.000000 98.721290 98.173859 100.072246 2 -1 1
126 63 1 0.000000 97.675033 98.725051 99.859657 2 -1 1
127 64 1 0.000000 102.542064 101.808848 98.657283 -1 -1 -1
128 64 1 0.000000 103.139862 101.306733 97.861929 -1 -1 -1
129 65 1 0.000000 101.559103 100.429144 100.600894 -1 1 1
130 65 1 0.000000 101.602334 100.228157 99.487172 -1 1 1
131 66 1 0.000000 97.891151 101.280174 98.185745 -1 -1 0
132 66 1 0.000000 98.596321 100.993717 97.324360 -1 -1 0
133 67 1 0.000000 100.230811 102.608026 98.838308 -1 2 1
134 67 1 0.000000 101.336241 102.284488 98.556120 -1 2 1
135 68 1 0.000000 100.677615 96.975715 98.116035 1 -1 0
136 68 1 0.000000 99.551495 97.218345 98.489431 1 -1 0
137 69 1 0.000000 98.452744 99.652148 97.464304 -2 0 1
138 69 1 0.000000 97.585966 100.481731 97.472020 -2 0 1
139 70 1 0.000000 102.339237 98.807283 102.041276 0 1 0
140 70 1 0.000000 101.377453 98.841368 101.466647 0 1 0
141 71 1 0.000000 100.513192 97.717760 96.924207 2 1 0
142 71 1 0.000000 101.069981 97.204036 102.286884 2 1 -1
143 72 1 0.000000 97.987414 99.687677 102.122131 2 0 -2
144 72 1 0.000000 97.108749 98.925909 102.160440 2 0 -2
145 73 1 0.000000 101.440277 97.777065 97.369530 1 0 0
146 73 1 0.000000 101.803510 96.998310 103.031034 1 0 -1
147 74 1 0.000000 98.996676 102.389866 102.271440 0 0 -1
148 74 1 0.000000 98.957580 96.882126 101.337698 1 0 -1
149 75 1 0.000000 100.656795 101.578474 101.498510 -1 -1 0
150 75 1 0.000000 99.703058 102.305717 101.254590 -1 -1 0
151 76 1 0.000000 99.732241 102.499924 99.789583 -2 0 0
152 76 1 0.000000 99.317806 97.293351 99.578048 -1 0 0
153 77 1 0.000000 103.012753 101.756799 101.554755 -1 -2 -1
154 77 1 0.000000 97.243320 100.774166 101.631277 -1 -1 -1
155 78 1 0.000000 103.133910 100.054036 102.267046 -3 2 0
156 78 1 0.000000 96.922115 101.070479 102.966285 -3 3 0
157 79 1 0.000000 101.421310 102.629736 101.959689 -1 -1 1
158 79 1 0.000000 101.778418 101.650595 101.412920 -1 -1 1
159 80 1 0.000000 101.561827 101.770053 97.564551 -1 1 1
160 80 1 0.000000 102.098267 100.893140 98.193880 -1 1 1
161 81 2 0.000000 97.580497 97.579894 102.814572 2 2 -1
162 82 2 0.000000 102.545413 103.146256 102.078390 -1 2 1
163 83 2 0.000000 98.738548 101.076182 99.680525 -1 1 0
164 84 2 0.000000 99.874442 99.757665 101.833485 1 1 -1
165 85 2 0.000000 100.384521 102.115225 97.734593 -2 0 1
166 86 2 0.000000 99.103116 101.814610 100.411546 1 1 2
167 87 2 0.000000 102.147221 101.164921 100.048682 2 1 -2
168 88 2 0.000000 100.125302 101.393482 96.980390 -1 0 -2
169 89 2 0.000000 100.952566 99.604054 102.053227 2 1 0
170 90 2 0.000000 98.861062 100.314120 100.426175 0 1 0
171 91 2 0.000000 102.102881 99.715742 101.388915 -1 -2 0
172 92 2 0.000000 99.430968 98.153492 99.014717 -1 0 0
173 93 2 0.000000 100.751105 99.442320 99.388006 0 1 -1
174 94 2 0.000000 99.417266 97.785206 97.111947 0 0 1
175 95 2 0.000000 102.384378 101.029236 102.298069 0 0 1
176 96 2 0.000000 97.703383 97.975255 101.854077 0 0 -1
177 97 2 0.000000 99.735427 99.473124 103.052057 -1 0 1
178 98 2 0.000000 97.121922 99.826169 101.009497 2 1 2
179 99 2 0.000000 98.941578 100.265528 101.893553 -1 1 -1
180 100 2 0.000000 102.955809 99.428096 97.754407 -2 -2 -1
181 101 2 0.000000 102.961781 102.783749 99.911914 0 -2 -2
182 102 2 0.000000 100.343483 98.556142 102.414627 -1 1 0
183 103 2 0.000000 98.457953 97.159695 100.360521 0 1 0
184 104 2 0.000000 97.022413 98.788299 100.703439 2 2 1
185 105 2 0.000000 97.457823 99.552770 96.861929 0 1 2
186 106 2 0.000000 98.134216 100.224368 101.264717 1 1 0
187 107 2 0.000000 103.062560 100.352182 98.386756 -2 0 1
188 108 2 0.000000 100.723316 98.580402 98.411331 1 0 1
189 109 2 0.000000 96.912114 101.163299 100.659051 1 -2 0
190 110 2 0.000000 100.726170 100.832553 99.608648 -1 1 2
191 111 2 0.000000 99.158174 101.884969 103.135162 0 -1 2
192 112 2 0.000000 100.665211 101.825817 99.397057 -1 -2 0
193 113 2 0.000000 98.845330 101.261833 98.598824 1 1 1
194 114 2 0.000000 98.555239 102.148905 97.576092 0 1 1
195 115 2 0.000000 97.832786 100.475222 102.739621 -1 2 0
196 116 2 0.000000 101.565404 101.278907 99.150308 0 1 0
197 117 2 0.000000 101.797162 97.113893 98.135319 3 0 2
198 118 2 0.000000 100.704303 100.039739 102.985058 -2 1 -3
199 119 2 0.000000 99.923549 99.726018 100.075003 -1 -1 -2
200 120 2 0.000000 99.576709 101.507242 99.259136 -1 -2 -1

Bonds

1 1 123 124
2 1 125 126
3 1 17 18
4 1 115 116
5 1 37 38
6 1 23 24
7 1 15 16
8 1 117 118
9 1 7 8
10 1 137 138
11 1 13 14
12 1 69 70
13 1 29 30
14 1 63 64
15 1 73 74
16 1 59 60
17 1 145 146
18 1 135 136
19 1 21 22
20 1 121 122
21 1 43 44
22 1 47 48
23 1 33 34
24 1 101 102
25 1 87 88
26 1 55 56
27 1 81 82
28 1 11 12
29 1 93 94
30 1 131 132
31 1 109 110
32 1 1 2
33 1 79 80
34 1 151 152
35 1 91 92
36 1 105 106
37 1 41 42
38 1 133 134
39 1 127 128
40 1 159 160
41 1 71 72
42 1 77 78
43 1 75 76
44 1 3 4
45 1 143 144
46 1 35 36
47 1 83 84
48 1 111 112
49 1 45 46
50 1 85 86
51 1 107 108
52 1 99 100
53 1 53 54
54 1 5 6
55 1 39 40
56 1 67 68
57 1 27 28
58 1 139 140
59 1 141 142
60 1 113 114
61 1 25 26
62 1 97 98
63 1 95 96
64 1 51 52
65 1 49 50
66 1 9 10
67 1 57 58
68 1 65 66
69 1 147 148
70 1 149 150
71 1 31 32
72 1 129 130
73 1 89 90
74 1 103 104
75 1 155 156
76 1 19 20
77 1 119 120
78 1 61 62
79 1 157 158
80 1 153 154
81 2 161 84
82 2 162 39
83 2 162 54
84 2 162 68
85 2 162 146
86 2 163 1
87 2 163 18
88 2 163 81
89 2 163 87
90 2 164 36
91 2 164 49
92 2 164 62
93 2 164 90
94 2 165 75
95 2 165 106
96 2 165 133
97 2 165 159
98 2 166 50
99 2 166 51
100 2 166 92
101 2 166 150
102 2 167 9
103 2 167 71
104 2 167 91
105 2 167 103
106 2 168 55
107 2 169 48
108 2 169 61
109 2 169 89
110 2 169 102
111 2 170 112
112 2 171 104
113 2 171 113
114 2 171 129
115 2 171 139
116 2 172 8
117 2 172 17
118 2 172 44
119 2 172 78
120 2 173 2
121 2 173 101
122 2 173 130
123 2 174 16
124 2 174 105
125 2 174 115
126 2 174 141
127 2 175 3
128 2 175 119
129 2 175 153
130 2 175 158
131 2 176 85
132 2 176 99
133 2 176 118
134 2 176 144
135 2 177 46
136 2 178 111
137 2 178 122
138 2 178 154
139 2 178 155
140 2 179 25
141 2 179 143
142 2 180 29
143 2 180 47
144 2 180 59
145 2 180 73
146 2 181 100
147 2 181 110
148 2 182 27
149 2 183 86
150 2 183 88
151 2 183 107
152 2 183 117
153 2 184 5
154 2 184 53
155 2 184 121
156 2 185 23
157 2 185 137
158 2 186 35
159 2 187 30
160 2 187 82
161 2 187 128
162 2 187 138
163 2 188 7
164 2 188 42
165 2 188 43
166 2 188 60
167 2 190 19
168 2 190 72
169 2 190 76
170 2 191 132
171 2 192 77
172 2 192 134
173 2 192 151
174 2 193 131
175 2 194 15
176 2 194 66
177 2 194 80
178 2 194 98
179 2 195 95
180 2 195 156
181 2 196 10
182 2 196 41
183 2 196 127
184 2 196 160
185 2 197 21
186 2 197 32
187 2 197 40
188 2 197 63
189 2 199 108
190 2 199 123
191 2 161 24
192 2 168 26
193 2 168 31
194 2 173 14
195 2 181 64
196 2 184 126
197 2 189 52
198 2 193 56
199 2 161 11
200 2 182 45
201 2 182 140
202 2 191 147
203 2 193 109

