Generated by ZY code

432 atoms
1 atom types
464 bonds
3 bond types
0 angles
0 angle types
0 dihedrals
0 dihedral types
0 impropers
0 improper types

130.5276858388166090 196.1141541611833077 xlo xhi
131.1293758388115123 196.7158441611835826 ylo yhi
132.5581058388152940 198.1445741611857159 zlo zhi

Masses

1 14.007 # N

Atoms # full

1 1 1 -0.814300 155.483652 137.655013 151.090474 0 -1 -1
2 1 1 -0.667600 158.637089 195.046840 148.461087 -1 -1 -1
3 1 1 -0.667600 152.652978 190.648988 169.839015 -1 0 -1
4 1 1 -0.667600 154.926289 181.903918 172.889270 -1 0 -1
5 1 1 -0.667600 183.606517 141.748055 154.046434 0 -1 -1
6 1 1 -0.814300 186.381170 132.699049 155.500060 0 -1 -1
7 1 1 -0.814300 172.548977 137.355811 147.665852 0 -1 -1
8 1 1 -0.667600 176.228753 133.555665 140.525907 0 -1 -1
9 1 1 -0.667600 158.227796 165.206334 154.154506 -1 0 0
10 1 1 -0.814300 159.799412 160.796759 145.962392 -1 0 0
11 1 1 -0.667600 142.570791 176.875702 157.073692 0 1 -1
12 1 1 -0.814300 146.912315 182.663253 164.416477 0 1 -1
13 1 1 -0.667600 152.570445 153.124716 170.024926 0 0 -1
14 1 1 -0.667600 144.987854 154.323215 167.458644 0 0 -1
15 1 1 -0.667600 178.374121 143.284225 154.942604 -1 0 -1
16 1 1 -0.814300 182.134976 151.679996 159.190260 -1 0 -1
17 1 1 -0.667600 159.736501 188.352139 167.764957 -1 0 -1
18 1 1 -0.667600 160.090679 179.957860 172.499452 -1 0 -1
19 1 1 -0.667600 146.148748 138.270997 166.858070 0 0 -1
20 1 1 -0.814300 147.307937 143.136698 175.496017 0 0 -1
21 1 1 -0.814300 153.630007 155.153096 182.195393 0 -1 -1
22 1 1 -0.667600 144.140160 155.352840 179.445998 0 -1 -1
23 2 1 -0.667600 193.351703 174.994769 149.196512 -1 0 0
24 2 1 -0.667600 193.613217 173.747053 159.417114 -1 0 0
25 1 1 -0.667600 182.378494 142.654804 176.043274 0 -1 -1
26 1 1 -0.814300 181.246070 149.739945 180.745082 0 -1 -1
27 1 1 -0.667600 177.631423 179.595244 187.275346 -1 0 -1
28 1 1 -0.814300 169.189527 174.499100 186.864071 -1 0 -1
29 1 1 -0.667600 173.250201 149.505268 155.745273 0 0 -1
30 1 1 -0.814300 165.162106 154.063077 160.743565 0 0 -1
31 1 1 -0.814300 189.080150 150.350892 180.110361 0 -1 -1
32 1 1 -0.814300 189.730314 146.822756 171.242445 0 -1 -1
33 1 1 -0.667600 152.776204 134.852824 143.746687 1 0 0
34 1 1 -0.667600 159.320735 134.073524 150.377655 1 0 0
35 1 1 -0.814300 171.134893 163.271034 187.622397 -1 0 -2
36 1 1 -0.667600 171.850218 154.001602 190.282480 -1 0 -2
37 1 1 -0.667600 180.766350 161.430388 134.710002 0 -1 0
38 1 1 -0.814300 172.142736 166.561058 135.572713 0 -1 0
39 1 1 -0.667600 166.722657 170.406903 192.371938 0 -1 -2
40 1 1 -0.667600 162.620255 161.989463 194.275943 0 -1 -2
41 1 1 -0.667600 147.380616 170.322000 133.798822 0 0 -1
42 1 1 -0.814300 150.856072 171.077972 142.320976 0 0 -1
43 1 1 -0.814300 138.948834 149.053005 173.414277 0 0 -1
44 1 1 -0.667600 138.048658 157.825229 170.586306 0 0 -1
45 1 1 -0.814300 175.120516 166.325101 165.331085 -1 0 0
46 1 1 -0.667600 178.641183 167.935822 174.277838 -1 0 0
47 1 1 -0.667600 195.148125 155.766522 164.094668 0 -1 -1
48 1 1 -0.667600 187.733181 159.357394 167.329698 0 -1 -1
49 1 1 -0.814300 194.443648 177.993533 140.982755 -1 -1 0
50 1 1 -0.667600 194.747230 169.268544 145.707617 -1 -1 0
51 1 1 -0.814300 160.170009 147.561360 182.149800 0 0 -1
52 1 1 -0.667600 157.074905 150.149431 173.642482 0 0 -1
53 1 1 -0.667600 138.126847 133.332974 151.096292 1 0 -1
54 1 1 -0.814300 131.598036 139.860860 153.047286 1 0 -1
55 3 1 -0.667600 181.831177 147.332102 187.500796 0 -1 -1
56 3 1 -0.667600 189.849581 141.151454 187.377250 0 -1 -1
57 1 1 -0.667600 173.146283 154.300413 171.066353 0 0 -1
58 1 1 -0.667600 166.298463 149.406809 174.890222 0 0 -1
59 1 1 -0.667600 184.951323 159.161811 151.549798 0 0 0
60 1 1 -0.814300 186.404727 153.828707 143.411291 0 0 0
61 1 1 -0.667600 136.392561 189.718937 152.961841 0 0 -1
62 1 1 -0.814300 131.098642 187.700675 160.989515 0 0 -1
63 1 1 -0.814300 138.887767 168.181584 191.064188 0 0 -2
64 1 1 -0.667600 134.531282 170.260304 134.196186 0 0 -1
65 1 1 -0.667600 186.749203 134.572532 140.886557 1 -1 0
66 1 1 -0.814300 194.069501 137.804078 146.661753 1 -1 0
67 1 1 -0.814300 144.662975 135.875360 185.196066 1 0 -1
68 1 1 -0.667600 136.411272 131.263045 188.190009 1 0 -1
69 1 1 -0.814300 159.240770 176.825411 140.232393 0 -1 0
70 1 1 -0.667600 161.709628 174.523548 132.637871 0 -1 0
71 1 1 -0.814300 166.198555 134.508801 170.999901 1 -1 -2
72 1 1 -0.667600 162.734484 142.842564 167.903820 1 -1 -2
73 1 1 -0.814300 160.644368 174.036026 158.005618 -1 0 -1
74 1 1 -0.667600 165.908169 175.906424 165.513044 -1 0 -1
75 1 1 -0.667600 157.475749 137.093767 165.357815 0 1 -1
76 1 1 -0.814300 156.399307 137.683387 175.025166 0 1 -1
77 1 1 -0.667600 143.996776 177.298195 195.677304 -1 0 -3
78 1 1 -0.667600 140.800813 186.038426 132.892548 -1 0 -2
79 1 1 -0.667600 160.056472 165.381080 169.312333 -1 0 0
80 1 1 -0.667600 151.962082 170.039232 169.884535 -1 0 0
81 1 1 -0.667600 174.481702 184.400153 140.461195 -2 -1 -1
82 1 1 -0.667600 181.991981 179.040982 140.359823 -2 -1 -1
83 1 1 -0.667600 176.972334 178.067018 168.085168 -2 0 0
84 1 1 -0.667600 177.806072 171.979660 159.671687 -2 0 0
85 1 1 -0.667600 137.309122 157.705917 158.804675 -1 0 -1
86 1 1 -0.667600 133.799687 150.375179 154.242627 -1 0 -1
87 1 1 -0.667600 167.090146 136.498539 188.760750 0 -2 -2
88 1 1 -0.814300 166.124604 146.192542 185.686343 0 -2 -2
89 1 1 -0.667600 169.272261 186.520594 190.807189 -1 0 0
90 1 1 -0.667600 171.971867 185.299205 134.744616 -1 0 1
91 1 1 -0.814300 133.512589 167.199485 148.942800 -1 1 0
92 1 1 -0.667600 193.007532 160.423542 153.440279 -1 0 0
93 1 1 -0.814300 140.405508 140.396774 151.147455 -1 1 -1
94 1 1 -0.814300 136.667266 137.054401 159.045684 -1 1 -1
95 1 1 -0.814300 190.636679 189.019479 194.223775 0 0 -1
96 1 1 -0.814300 185.150784 185.271424 135.003968 0 0 0
97 1 1 -0.814300 181.211113 148.612430 161.686985 0 -1 -1
98 1 1 -0.814300 173.135781 142.291726 159.727587 0 -1 -1
99 1 1 -0.814300 191.405282 145.229355 164.099438 1 0 0
100 1 1 -0.814300 135.979467 144.824764 163.524243 1 1 0
101 1 1 -0.814300 133.107384 133.739276 162.431144 0 1 0
102 1 1 -0.814300 132.555509 193.943799 154.263946 -1 1 0
103 1 1 -0.814300 158.042230 157.597730 171.489622 0 -1 0
104 1 1 -0.814300 161.510496 148.638310 172.447137 0 -1 0
105 1 1 -0.814300 193.024891 184.450579 144.179706 -2 0 -1
106 1 1 -0.667600 134.992462 178.173766 144.725742 -2 1 -1
107 1 1 -0.814300 137.164557 161.087002 144.058669 -1 1 -1
108 1 1 -0.814300 143.302936 156.083844 149.089188 -1 1 -1
109 1 1 -0.667600 131.986890 163.106452 194.625480 0 0 -1
110 1 1 -0.667600 188.850376 162.460180 133.275959 0 -1 0
111 1 1 -0.814300 152.401415 185.818208 194.505234 0 0 -1
112 1 1 -0.814300 145.083947 190.426346 197.253975 0 0 -1
113 1 1 -1.241100 134.341779 138.093873 178.521658 0 0 -1
114 1 1 -0.667600 130.581303 143.954014 171.703252 0 0 -1
115 1 1 -0.814300 148.802985 179.335397 154.570297 0 1 -1
116 1 1 -0.814300 150.463642 170.922387 158.744397 0 1 -1
117 1 1 -0.814300 164.268950 184.168166 171.928921 0 1 -1
118 1 1 -0.814300 160.287507 190.416716 177.757979 0 1 -1
119 1 1 -0.667600 156.701900 175.540464 174.830328 0 1 0
120 1 1 -0.667600 150.693790 167.847272 175.548663 0 1 0
121 1 1 -0.667600 137.206054 169.156177 169.176493 0 0 -1
122 1 1 -0.667600 144.092421 175.853578 171.387585 0 0 -1
123 1 1 -0.667600 191.330153 183.661748 139.079357 0 -1 -1
124 1 1 -0.667600 191.799202 179.604813 196.076608 0 -1 -2
125 5 1 -0.667600 138.253225 168.791547 157.030064 0 0 -1
126 5 1 -0.814300 143.917678 161.023518 157.062037 0 0 -1
127 1 1 -0.814300 175.447271 147.177180 197.792971 0 0 -1
128 1 1 -0.667600 170.453232 147.861586 139.620127 0 0 0
129 1 1 -0.814300 165.574338 183.387334 141.332259 0 -1 -1
130 1 1 -0.667600 162.517366 187.311831 134.466705 0 -1 -1
131 1 1 -0.667600 150.108526 181.293793 197.679729 0 0 -1
132 1 1 -0.667600 150.236872 171.436791 194.589652 0 0 -1
133 1 1 -0.667600 174.019347 161.148000 173.065639 0 -1 -1
134 1 1 -0.667600 176.253103 161.119580 163.460984 0 -1 -1
135 1 1 -0.667600 174.632950 143.763098 186.063302 0 -1 -1
136 1 1 -0.667600 178.023824 152.439587 184.500418 0 -1 -1
137 6 1 -0.667600 187.246725 159.065836 189.371329 1 -2 -2
138 6 1 -0.814300 130.588543 162.204709 189.837535 1 -1 -2
139 1 1 -0.667600 140.711124 149.749749 195.007916 0 0 -1
140 1 1 -0.667600 137.963893 154.168691 187.062535 0 0 -1
141 1 1 -0.814300 130.747644 177.892604 158.654805 -1 2 0
142 1 1 -0.667600 190.010070 183.034823 152.987624 -1 1 0
143 1 1 -0.667600 176.798940 179.587845 152.213209 0 0 0
144 1 1 -0.667600 167.654689 181.341278 151.918958 0 0 0
145 10 1 -0.667600 165.908149 163.788758 196.460414 0 -1 0
146 10 1 -0.814300 167.684740 165.719118 139.855848 0 -1 1
147 12 1 -0.667600 138.207887 133.396587 138.040816 0 0 1
148 12 1 -0.814300 131.091370 138.516183 134.771466 0 0 1
149 1 1 -0.814300 156.755928 143.555350 191.249212 0 0 -1
150 1 1 -0.667600 152.625411 151.246997 186.978326 0 0 -1
151 1 1 -0.814300 165.876044 189.714544 161.177680 -1 0 0
152 1 1 -0.667600 171.241732 196.663839 158.984566 -1 0 0
153 1 1 -0.667600 149.245759 193.082783 145.483284 -1 0 0
154 1 1 -0.667600 143.669064 186.797792 139.628398 -1 0 0
155 1 1 -0.814300 169.139379 164.644329 189.766223 -1 0 -1
156 1 1 -0.814300 160.302356 167.092506 186.651899 -1 0 -1
157 1 1 -0.667600 164.533137 176.174945 149.190281 -1 -1 0
158 1 1 -0.667600 172.381571 179.822206 146.431391 -1 -1 0
159 1 1 -0.814300 195.236873 158.080447 157.850943 0 0 0
160 1 1 -0.667600 137.827108 160.705980 153.371053 0 1 0
161 1 1 -0.667600 188.391464 164.693575 139.605259 0 -1 0
162 1 1 -0.814300 184.898059 172.461109 136.007810 0 -1 0
163 1 1 -0.667600 152.229254 194.774583 177.771130 -1 0 0
164 1 1 -0.814300 153.397879 138.565608 179.402403 0 0 0
165 1 1 -0.667600 137.633523 186.193082 185.595397 -1 0 -1
166 1 1 -0.667600 146.210921 187.004599 188.744847 -1 0 -1
167 1 1 -0.667600 138.383359 171.271554 196.885633 -1 1 -2
168 1 1 -0.667600 138.672613 177.025276 190.715174 -1 1 -2
169 14 1 -0.667600 149.158411 183.779391 180.551717 -1 0 0
170 14 1 -0.814300 153.774642 191.090806 184.341066 -1 0 0
171 1 1 -0.814300 191.990205 135.585948 170.287023 0 -1 0
172 1 1 -0.667600 188.843025 134.411676 161.402872 0 -1 0
173 1 1 -0.667600 147.575206 161.847609 192.366239 0 0 0
174 1 1 -0.667600 151.766390 161.056877 184.190278 0 0 0
175 1 1 -0.667600 179.748673 182.068365 163.562097 -1 0 0
176 1 1 -0.667600 189.197018 180.260040 166.861090 -1 0 0
177 1 1 -0.814300 136.143217 163.240466 135.280745 0 1 0
178 1 1 -0.814300 193.105393 161.046948 138.774668 0 0 0
179 1 1 -0.814300 169.485382 159.613075 137.903453 -1 0 -1
180 1 1 -0.814300 163.187322 157.517149 144.600401 -1 0 -1
181 1 1 -0.667600 140.073696 180.443918 141.054747 0 0 -1
182 1 1 -0.667600 149.061178 177.671122 143.855635 0 0 -1
183 1 1 -0.814300 141.345680 173.523036 177.280672 0 -1 0
184 1 1 -0.667600 146.111998 173.065187 185.636074 0 -1 0
185 1 1 -0.667600 170.843352 171.281984 163.956739 0 0 0
186 1 1 -0.814300 161.428049 168.541887 161.480341 0 0 0
187 1 1 -0.667600 162.376264 163.381662 141.776374 0 0 0
188 1 1 -0.667600 168.051900 159.583266 149.000004 0 0 0
189 1 1 -0.814300 154.375785 163.249984 176.658167 0 0 0
190 1 1 -0.667600 163.855124 161.435564 177.034668 0 0 0
191 1 1 -0.667600 135.816625 147.974520 184.275138 0 0 0
192 1 1 -0.667600 195.326876 154.601740 185.031495 0 -1 0
193 1 1 -0.667600 189.216886 188.569343 171.465516 0 0 0
194 1 1 -0.814300 180.068869 189.047614 170.570738 0 0 0
195 1 1 -0.814300 134.315630 161.921807 172.873627 0 0 -1
196 1 1 -0.814300 192.020006 163.091673 168.582826 0 -1 -1
197 1 1 -0.814300 190.512086 140.568525 140.201561 0 -1 1
198 1 1 -0.667600 183.151018 143.828084 143.590767 0 -1 1
199 1 1 -0.667600 140.535366 180.518448 155.616528 -1 1 -1
200 1 1 -0.667600 146.930936 186.131364 155.934891 -1 1 -1
201 1 1 -0.814300 136.194030 181.519538 150.223428 -1 2 1
202 1 1 -0.814300 193.664796 186.784074 148.339457 -1 1 1
203 1 1 -0.667600 189.926233 195.540746 187.823312 -1 0 -1
204 1 1 -0.667600 184.446867 133.843519 194.326491 0 0 -1
205 1 1 -0.667600 173.953594 168.227609 139.754743 0 -1 0
206 1 1 -0.814300 182.241858 173.527531 140.250808 0 -1 0
207 1 1 -0.814300 191.424850 159.681076 163.586196 0 -1 -1
208 1 1 -0.814300 185.533511 155.134512 157.294450 0 -1 -1
209 1 1 -0.814300 164.286806 178.656183 192.427475 0 0 0
210 1 1 -0.814300 159.860378 170.001535 189.535220 0 0 0
211 1 1 -0.667600 191.867959 195.264476 154.250393 0 -1 -1
212 1 1 -0.667600 185.426429 133.329842 147.536887 1 -1 -1
213 21 1 -0.667600 148.591330 137.098358 174.211445 0 0 0
214 21 1 -0.814300 154.208562 143.333660 168.710009 0 0 0
215 1 1 -0.667600 139.730878 191.561403 175.200752 0 1 -1
216 1 1 -0.667600 133.017476 133.064022 176.883839 1 1 -1
217 1 1 -0.814300 135.600559 181.898219 187.463675 -1 -1 0
218 1 1 -0.814300 194.426451 187.000080 191.020326 -1 -2 0
219 1 1 -0.814300 187.527126 146.122309 181.921641 0 0 0
220 1 1 -0.667600 191.675886 154.755679 180.765352 0 0 0
221 1 1 -0.667600 131.246184 174.429057 174.692152 -1 0 -1
222 1 1 -0.667600 192.407151 165.710936 175.656336 -1 -1 -1
223 1 1 -0.667600 150.861549 148.812948 153.092786 -1 0 0
224 1 1 -0.814300 143.721731 155.373470 152.988065 -1 0 0
225 1 1 -0.814300 168.851997 147.112748 166.593462 -1 0 0
226 1 1 -0.667600 165.243324 156.009770 167.320711 -1 0 0
227 1 1 -0.814300 157.785838 187.136165 163.125823 -1 0 0
228 1 1 -0.667600 165.905021 184.966197 160.002744 -1 0 0
229 1 1 -0.814300 155.878582 141.507262 136.922189 0 -1 0
230 1 1 -0.667600 154.154700 150.658920 138.882849 0 -1 0
231 1 1 -0.667600 171.404745 162.331980 197.364130 0 0 -1
232 1 1 -0.814300 174.986431 153.537516 194.716835 0 0 -1
233 1 1 -0.667600 138.247330 143.657072 188.106664 0 -1 0
234 1 1 -0.667600 195.843652 141.052655 193.258093 0 -2 0
235 1 1 -0.814300 186.817967 175.297331 139.051677 -1 -1 0
236 1 1 -1.244800 182.380736 181.060766 132.646677 -1 -1 0
237 1 1 -0.667600 190.299820 172.961770 186.006292 -1 0 0
238 1 1 -0.667600 186.524745 178.287695 178.279502 -1 0 0
239 1 1 -0.814300 187.552412 194.906051 161.598998 -1 0 -1
240 1 1 -0.814300 183.009969 195.860844 152.209103 -1 0 -1
241 1 1 -0.667600 172.086568 142.135127 198.109883 0 -1 -1
242 1 1 -0.814300 164.332514 140.324765 193.181099 0 -1 -1
243 3 1 -0.667600 189.475910 132.016463 136.328867 0 -2 1
244 3 1 -0.814300 193.014435 133.803557 192.577722 0 -2 0
245 1 1 -0.667600 134.181845 186.780558 166.784750 -1 1 0
246 1 1 -0.814300 194.477621 193.403069 169.149465 -1 0 0
247 1 1 -0.814300 136.775157 139.609186 163.604163 0 0 0
248 1 1 -0.667600 141.755065 134.546248 170.228555 0 0 0
249 1 1 -0.667600 166.579495 195.417575 178.669703 -1 0 0
250 1 1 -0.814300 166.735159 137.823366 184.749201 0 0 0
251 1 1 -0.814300 153.192135 175.134512 139.935284 -1 0 0
252 1 1 -0.667600 160.711282 178.672782 144.371942 -1 0 0
253 1 1 -0.667600 193.065560 147.734767 196.770158 0 -2 0
254 1 1 -0.814300 185.629006 148.471120 137.237652 0 -2 1
255 1 1 -0.814300 180.613023 153.356683 140.806024 0 -1 0
256 1 1 -0.667600 187.779550 149.163130 145.560275 0 -1 0
257 1 1 -1.241100 146.685593 134.028757 142.570323 1 -1 0
258 1 1 -0.667600 153.142096 132.012149 137.329139 1 -1 0
259 1 1 -0.814300 158.424892 194.817943 189.782012 -1 -1 -1
260 1 1 -0.667600 156.880319 137.057782 184.224655 0 -1 -1
261 1 1 -0.814300 146.003594 190.205201 160.561564 -1 0 0
262 1 1 -0.667600 152.690999 185.411790 165.561136 -1 0 0
263 1 1 -0.667600 167.706628 144.467368 143.841158 0 0 1
264 1 1 -0.667600 168.281795 135.257314 146.253488 0 0 1
265 1 1 -0.814300 188.057023 189.886227 180.733312 -1 -1 0
266 1 1 -0.814300 188.132562 182.275928 175.028366 -1 -1 0
267 1 1 -0.667600 150.965865 167.291926 136.818830 0 -1 0
268 1 1 -0.667600 149.746818 157.554622 137.464988 0 -1 0
269 1 1 -0.814300 177.832993 191.270018 139.818498 0 -1 -1
270 1 1 -0.667600 179.945568 188.828059 196.443465 0 -1 -2
271 1 1 -0.667600 178.127513 186.303497 188.541275 -1 0 0
272 1 1 -0.814300 176.626328 186.729576 179.534451 -1 0 0
273 1 1 -0.667600 179.665073 132.312957 176.344194 0 0 0
274 1 1 -0.814300 175.730096 138.803490 171.394128 0 0 0
275 1 1 -0.667600 153.805318 166.008935 162.521048 0 0 0
276 1 1 -0.814300 159.754025 158.600089 161.678530 0 0 0
277 1 1 -0.667600 138.986828 146.746423 166.252031 0 -1 0
278 1 1 -0.814300 146.010906 144.172766 171.305391 0 -1 0
279 1 1 -0.667600 184.375417 135.705332 167.758935 0 -1 -1
280 1 1 -0.814300 184.148680 145.503596 166.361932 0 -1 -1
281 1 1 -0.667600 164.997328 193.118026 142.659824 -1 -1 0
282 1 1 -0.667600 167.765046 191.640675 133.702768 -1 -1 0
283 1 1 -0.667600 145.740626 147.411173 138.866986 0 0 0
284 1 1 -0.667600 148.272004 153.081069 197.165408 0 0 -1
285 1 1 -0.667600 180.235991 195.945594 134.038513 0 -1 1
286 1 1 -0.814300 185.527994 187.943435 133.521815 0 -1 1
287 1 1 -0.667600 157.082233 184.894835 154.903417 0 0 0
288 1 1 -0.814300 148.925740 189.302473 151.128404 0 0 0
289 1 1 -0.814300 152.723285 188.359743 193.154051 -1 0 -1
290 1 1 -0.667600 149.938504 185.974937 185.138020 -1 0 -1
291 1 1 -0.667600 140.721665 151.175692 179.967978 -1 0 0
292 1 1 -0.814300 141.648366 159.300149 175.683854 -1 0 0
293 1 1 -0.814300 187.661324 177.195395 156.461830 -1 -1 0
294 1 1 -0.667600 184.725400 173.805440 148.823302 -1 -1 0
295 1 1 -0.814300 158.180031 196.327446 169.011927 -1 0 0
296 1 1 -0.667600 149.860838 133.841310 166.385166 0 0 0
297 1 1 -0.814300 154.638201 194.691151 190.075024 -1 0 0
298 1 1 -0.667600 147.601624 135.435930 188.635208 0 0 0
299 1 1 -0.667600 135.242833 187.228066 172.540967 0 1 -1
300 1 1 -0.667600 136.548371 191.046665 181.097001 0 1 -1
301 1 1 -0.814300 172.167817 135.527356 184.057505 0 -1 0
302 1 1 -0.667600 177.077582 137.523102 191.992070 0 -1 0
303 1 1 -0.814300 140.216592 155.465374 138.046744 0 0 1
304 1 1 -0.667600 135.839002 154.508759 146.499380 0 0 1
305 1 1 -0.667600 173.389415 191.149940 177.031530 -1 -1 -1
306 1 1 -0.814300 182.334683 192.620654 181.196719 -1 -1 -1
307 1 1 -0.667600 192.069118 190.644072 143.227456 -1 -1 0
308 1 1 -0.667600 182.774847 188.271039 143.123941 -1 -1 0
309 1 1 -0.814300 149.691916 177.284997 187.187183 0 0 0
310 1 1 -0.814300 152.104910 182.464221 193.896455 0 0 0
311 1 1 -0.667600 148.924003 139.032505 159.719862 0 0 0
312 1 1 -0.667600 157.573749 135.472069 156.917028 0 0 0
313 1 1 -0.814300 187.489773 182.332331 181.363334 -1 -1 0
314 1 1 -0.814300 184.323086 190.764983 178.139122 -1 -1 0
315 1 1 -0.667600 154.917293 140.847440 155.001989 0 0 0
316 1 1 -0.814300 156.048338 148.978582 157.462056 0 0 0
317 1 1 -0.667600 162.708370 145.305982 133.471416 0 -1 0
318 1 1 -1.244800 172.572150 146.201713 133.647993 0 -1 0
319 1 1 -0.667600 144.460803 134.868170 197.045593 0 0 0
320 1 1 -0.667600 136.700224 194.392473 198.112960 -1 0 0
321 1 1 -0.814300 152.106080 172.699892 186.137008 -1 0 0
322 1 1 -0.667600 152.713889 181.464283 187.931676 -1 0 0
323 1 1 -0.667600 164.204136 150.418333 142.700255 -1 -1 0
324 1 1 -0.814300 155.808695 148.960679 144.418430 -1 -1 0
325 1 1 -0.814300 187.243042 182.288431 185.967407 0 -1 -1
326 1 1 -0.814300 180.361029 175.958967 184.738784 0 -1 -1
327 1 1 -0.667600 133.880766 169.145159 188.192710 0 0 -1
328 1 1 -1.244800 189.441917 168.388333 187.507695 0 -1 -1
329 1 1 -0.814300 190.100319 153.250592 169.238467 0 -1 0
330 1 1 -1.244800 133.501450 152.716359 165.525225 0 0 0
331 1 1 -0.814300 165.668190 170.808183 142.587777 -1 -1 -1
332 1 1 -0.667600 172.275267 165.151845 146.418451 -1 -1 -1
333 8 1 -0.814300 140.717631 195.655326 193.628110 0 0 0
334 8 1 -1.244800 147.551868 136.822544 193.112736 1 0 0
335 1 1 -0.814300 184.717781 166.267846 185.271865 0 0 0
336 1 1 -0.667600 178.364265 160.121178 181.060705 0 0 0
337 1 1 -0.667600 173.770044 184.686919 172.036579 -1 0 0
338 1 1 -0.814300 177.770779 180.372648 179.529990 -1 0 0
339 3 1 -0.667600 130.721594 145.099731 190.099176 0 -1 0
340 3 1 -0.667600 133.254638 147.376860 133.866341 0 -1 1
341 1 1 -0.667600 176.493133 161.106483 157.016546 0 -1 0
342 1 1 -0.667600 174.204508 169.973910 155.041635 0 -1 0
343 1 1 -0.814300 155.708193 154.001523 134.651023 0 -1 0
344 1 1 -0.814300 156.456938 163.103477 138.493914 0 -1 0
345 1 1 -0.667600 138.654100 150.423240 160.168907 0 1 0
346 1 1 -0.667600 144.005435 149.106485 152.600093 0 1 0
347 1 1 -0.814300 144.742569 170.382604 173.505515 0 0 0
348 1 1 -0.667600 142.870840 165.627543 181.860435 0 0 0
349 1 1 -0.667600 147.232054 164.497783 142.538408 0 -1 0
350 1 1 -0.667600 153.368688 158.541887 146.307691 0 -1 0
351 1 1 -0.667600 166.024609 132.734011 165.548002 0 0 0
352 1 1 -0.667600 175.464571 135.235885 167.223427 0 0 0
353 1 1 -0.667600 144.175659 166.407433 159.745465 0 0 -1
354 1 1 -0.814300 148.686055 174.847179 157.851634 0 0 -1
355 1 1 -0.814300 169.513442 136.433237 168.595906 1 -1 0
356 1 1 -0.667600 174.331658 136.598839 160.442418 1 -1 0
357 1 1 -0.667600 168.961638 140.705764 192.798614 0 0 0
358 1 1 -0.667600 177.314692 145.038325 191.954912 0 0 0
359 1 1 -0.667600 168.650582 159.935070 159.298497 0 0 0
360 1 1 -0.814300 174.869471 156.009171 153.772100 0 0 0
361 3 1 -0.814300 143.554938 140.606181 133.245088 -1 -1 1
362 3 1 -0.814300 134.575683 143.990290 135.186854 -1 -1 1
363 1 1 -0.667600 181.501476 187.526254 162.748481 -1 -1 0
364 1 1 -0.667600 181.826453 186.291295 153.320556 -1 -1 0
365 1 1 -0.814300 179.931421 181.814755 154.873069 -2 0 1
366 1 1 -0.667600 173.721054 189.087639 158.370715 -2 0 1
367 1 1 -0.814300 130.765548 136.339986 161.031137 -1 1 0
368 1 1 -0.814300 130.635556 132.780446 169.584614 -1 1 0
369 1 1 -0.814300 150.201832 161.724025 188.621980 0 0 0
370 1 1 -0.814300 154.410109 170.169039 185.849942 0 0 0
371 1 1 -0.667600 158.735013 150.377288 152.004324 -1 0 0
372 1 1 -0.667600 152.225376 144.148573 147.288621 -1 0 0
373 1 1 -0.667600 164.096116 168.592886 174.099913 -1 0 0
374 1 1 -0.814300 167.475310 175.054276 180.530847 -1 0 0
375 1 1 -0.814300 141.897061 137.831458 156.209086 0 -1 -1
376 1 1 -0.667600 148.177039 143.515676 151.761740 0 -1 -1
377 1 1 -0.814300 166.510252 150.654334 151.078628 0 0 0
378 1 1 -0.667600 159.606890 153.892791 144.517579 0 0 0
379 1 1 -0.667600 132.572507 193.157041 136.343207 -1 0 1
380 1 1 -0.667600 138.075330 195.582573 143.947351 -1 0 1
381 1 1 -0.667600 136.735762 142.881490 181.818735 0 1 0
382 1 1 -0.667600 137.869794 135.738151 175.251766 0 1 0
383 1 1 -0.667600 183.831123 144.766837 160.788753 -1 0 0
384 1 1 -0.814300 192.650029 140.665341 162.968996 -1 0 0
385 1 1 -0.814300 152.163823 140.857884 186.557540 0 -1 -1
386 1 1 -0.814300 154.957743 131.878474 182.493405 0 -1 -1
387 8 1 -0.814300 133.700294 175.114374 185.192936 -1 -1 0
388 8 1 -0.814300 131.725102 182.561036 190.064080 -1 -1 0
389 1 1 -0.814300 162.353797 190.794620 165.482478 -1 0 1
390 1 1 -0.814300 159.952328 192.784535 156.525609 -1 0 1
391 1 1 -0.667600 190.286807 186.391046 189.610853 -1 0 0
392 1 1 -0.814300 190.572999 177.500353 192.035218 -1 0 0
393 1 1 -0.814300 173.049368 175.164094 178.448989 0 -1 0
394 1 1 -0.667600 177.456719 167.849305 181.496036 0 -1 0
395 1 1 -0.814300 144.798899 185.560679 161.620742 -1 1 0
396 1 1 -0.667600 136.663518 190.909030 163.581612 -1 1 0
397 4 1 -0.814300 146.814870 164.517306 162.883314 1 1 1
398 4 1 -1.244800 138.196008 161.495210 163.672614 1 1 1
399 1 1 -0.814300 194.221880 156.208093 134.138784 0 -1 1
400 1 1 -0.667600 136.269364 156.764817 139.878871 0 0 1
401 1 1 -0.667600 193.495669 152.605704 146.736144 0 -1 0
402 1 1 -0.667600 194.341064 145.029731 151.016661 0 -1 0
403 1 1 -0.667600 171.858882 173.460550 152.263174 0 0 0
404 1 1 -0.667600 167.623545 179.992895 159.170920 0 0 0
405 1 1 -0.814300 136.839559 179.925550 166.501044 -1 1 0
406 1 1 -0.814300 193.321950 178.479235 163.242501 -1 0 0
407 1 1 -1.241100 188.509973 165.100282 170.892417 -1 1 1
408 1 1 -0.667600 189.669036 174.153521 172.849989 -1 1 1
409 1 1 -0.667600 162.855038 150.738662 189.013420 0 -1 0
410 1 1 -0.667600 158.022128 150.875352 196.228144 0 -1 0
411 1 1 -0.814300 191.003280 142.531506 176.348385 0 -1 -1
412 1 1 -0.814300 182.553867 138.664855 180.351853 0 -1 -1
413 1 1 -0.667600 151.499421 168.732018 147.613493 0 0 0
414 1 1 -0.667600 153.653123 160.511866 152.616629 0 0 0
415 1 1 -0.814300 187.125474 169.667786 149.099275 -1 -1 0
416 1 1 -0.814300 190.784677 170.776288 139.581798 -1 -1 0
417 1 1 -0.814300 166.494330 155.891900 184.312410 0 0 0
418 1 1 -0.814300 173.755229 152.406307 179.594954 0 0 0
419 1 1 -0.667600 163.237928 170.777673 183.570776 1 -1 -1
420 1 1 -0.667600 162.900666 161.225886 183.192375 1 -1 -1
421 1 1 -0.667600 135.459442 174.434871 170.998280 -1 0 0
422 1 1 -0.667600 132.275951 165.239868 170.567527 -1 0 0
423 1 1 -0.667600 176.425256 154.923400 143.090726 0 -2 0
424 1 1 -0.667600 176.172627 161.705143 149.968848 0 -2 0
425 1 1 -0.667600 187.818791 150.874452 174.119313 1 -1 0
426 1 1 -0.814300 130.748274 155.605956 172.517069 1 0 0
427 1 1 -0.667600 162.991357 137.889152 135.016266 0 0 0
428 1 1 -0.814300 155.279711 135.851805 195.763795 0 0 -1
429 1 1 -0.814300 155.818831 137.839540 140.933717 0 0 0
430 1 1 -0.667600 161.327949 140.973512 147.263841 0 0 0
431 1 1 -0.814300 160.623526 189.759079 139.543520 0 -1 0
432 1 1 -0.814300 154.221003 184.641358 144.938528 0 -1 0

Bonds

1 2 1 2
2 1 1 33
3 1 2 144
4 1 2 153
5 2 3 4
6 1 3 19
7 1 3 296
8 1 4 80
9 1 4 321
10 2 5 6
11 1 5 384
12 1 6 102
13 2 7 8
14 1 8 308
15 2 9 10
16 1 9 350
17 1 9 403
18 1 10 268
19 2 11 12
20 1 11 116
21 1 11 353
22 1 12 405
23 2 13 14
24 1 13 120
25 1 13 316
26 1 14 114
27 1 14 195
28 2 15 16
29 1 15 152
30 1 15 352
31 1 16 48
32 2 17 18
33 1 17 118
34 1 17 249
35 1 18 337
36 2 19 20
37 1 19 315
38 1 20 191
39 2 21 22
40 1 21 52
41 1 22 103
42 1 22 189
43 2 23 24
44 2 25 26
45 1 25 114
46 1 25 355
47 1 26 192
48 2 27 28
49 1 27 89
50 1 27 96
51 1 28 190
52 2 29 30
53 1 29 198
54 1 29 430
55 1 30 79
56 2 31 32
57 1 31 222
58 2 33 34
59 1 33 380
60 1 34 264
61 2 35 36
62 1 35 326
63 1 36 410
64 2 37 38
65 1 37 178
66 1 38 69
67 2 39 40
68 1 39 205
69 1 39 231
70 1 40 70
71 2 41 42
72 1 41 177
73 1 41 284
74 2 43 44
75 1 43 220
76 1 44 191
77 1 44 277
78 2 45 46
79 1 45 424
80 1 46 408
81 3 47 48
82 1 47 383
83 2 49 50
84 1 50 201
85 2 51 52
86 1 51 190
87 2 53 54
88 1 53 261
89 1 54 211
90 2 55 56
91 1 55 339
92 2 57 58
93 1 57 425
94 1 58 409
95 2 59 60
96 1 59 161
97 1 59 294
98 1 60 304
99 2 61 62
100 1 61 154
101 1 61 307
102 1 62 421
103 2 63 64
104 1 63 77
105 1 64 91
106 2 65 66
107 1 65 302
108 1 66 86
109 2 67 68
110 1 67 215
111 1 68 95
112 1 68 218
113 2 69 70
114 2 71 72
115 1 71 273
116 2 73 74
117 1 73 413
118 1 74 83
119 1 74 342
120 2 75 76
121 1 75 249
122 1 76 250
123 2 77 78
124 1 77 154
125 1 78 289
126 2 79 80
127 1 79 359
128 3 81 82
129 1 81 281
130 1 82 142
131 2 83 84
132 1 83 176
133 1 84 293
134 1 84 332
135 2 85 86
136 1 85 346
137 1 85 426
138 1 86 94
139 2 87 88
140 1 87 89
141 1 87 386
142 2 89 90
143 1 90 271
144 2 91 92
145 2 93 94
146 1 93 108
147 2 95 96
148 2 97 98
149 1 98 312
150 2 99 100
151 1 99 247
152 1 100 376
153 2 101 102
154 1 101 299
155 2 103 104
156 2 105 106
157 1 105 364
158 1 106 123
159 2 107 108
160 1 107 167
161 2 109 110
162 1 109 327
163 1 109 400
164 1 110 335
165 2 111 112
166 1 112 379
167 2 113 114
168 2 115 116
169 1 115 181
170 2 117 118
171 1 117 404
172 2 119 120
173 1 119 393
174 1 120 174
175 2 121 122
176 1 121 207
177 1 121 353
178 1 122 215
179 1 122 275
180 2 123 124
181 1 123 269
182 1 124 168
183 2 125 126
184 2 127 128
185 1 127 409
186 1 128 358
187 1 128 377
188 2 129 130
189 1 129 432
190 1 130 297
191 2 131 132
192 1 131 252
193 1 132 251
194 2 133 134
195 1 133 185
196 1 133 329
197 2 135 136
198 1 135 412
199 1 135 418
200 1 136 425
201 2 137 138
202 2 139 140
203 1 139 319
204 1 139 343
205 1 140 233
206 1 140 348
207 2 141 142
208 2 143 144
209 1 143 294
210 2 145 146
211 2 147 148
212 2 149 150
213 1 150 291
214 1 150 385
215 2 151 152
216 1 151 312
217 1 152 279
218 2 153 154
219 1 153 380
220 2 155 156
221 1 155 336
222 1 156 173
223 2 157 158
224 1 157 185
225 1 157 287
226 1 158 252
227 1 158 404
228 2 159 160
229 1 159 345
230 1 160 413
231 2 161 162
232 1 162 237
233 2 163 164
234 1 163 166
235 1 163 262
236 1 164 381
237 2 165 166
238 1 165 221
239 1 165 298
240 2 167 168
241 1 167 181
242 1 168 290
243 2 169 170
244 2 171 172
245 1 171 216
246 1 172 402
247 2 173 174
248 1 173 410
249 1 174 210
250 2 175 176
251 1 175 406
252 1 176 239
253 2 177 178
254 2 179 180
255 1 179 424
256 1 180 360
257 2 181 182
258 2 183 184
259 1 184 322
260 2 185 186
261 1 186 188
262 2 187 188
263 1 187 378
264 1 188 371
265 2 189 190
266 2 191 192
267 1 192 219
268 2 193 194
269 1 193 368
270 1 194 228
271 2 195 196
272 1 196 221
273 2 197 198
274 1 197 285
275 2 199 200
276 1 199 245
277 1 199 396
278 1 200 262
279 2 201 202
280 1 202 365
281 2 203 204
282 1 204 358
283 1 204 379
284 3 205 206
285 2 207 208
286 1 208 423
287 2 209 210
288 2 211 212
289 1 212 364
290 3 213 214
291 2 215 216
292 2 217 218
293 2 219 220
294 1 220 222
295 2 221 222
296 2 223 224
297 1 223 276
298 1 223 414
299 1 224 401
300 2 225 226
301 1 225 351
302 1 226 373
303 2 227 228
304 1 227 351
305 3 229 230
306 1 230 349
307 2 231 232
308 1 231 255
309 1 232 357
310 2 233 234
311 1 234 320
312 2 235 236
313 1 235 308
314 3 237 238
315 2 239 240
316 1 240 356
317 2 241 242
318 1 241 323
319 1 242 282
320 2 243 244
321 1 243 362
322 1 244 339
323 2 245 246
324 1 245 408
325 1 246 363
326 2 247 248
327 1 248 299
328 2 249 250
329 2 251 252
330 2 253 254
331 1 253 399
332 2 255 256
333 1 256 304
334 2 257 258
335 1 258 259
336 1 258 431
337 2 259 260
338 1 260 295
339 1 260 298
340 2 261 262
341 2 263 264
342 1 264 366
343 2 265 266
344 1 266 272
345 2 267 268
346 1 268 284
347 2 269 270
348 1 270 306
349 2 271 272
350 1 271 392
351 2 273 274
352 1 273 302
353 1 274 383
354 2 275 276
355 2 277 278
356 2 279 280
357 1 279 314