Generated by ZY code

432 atoms
1 atom types
539 bonds
3 bond types
0 angles
0 angle types
0 dihedrals
0 dihedral types
0 impropers
0 improper types

130.4552698694119499 196.1865701305868015 xlo xhi
131.0569598694163176 196.7882601305870764 ylo yhi
132.4856898694138749 198.2169901305887265 zlo zhi

Masses

1 14.007 # N

Atoms # full

1 1 1 -0.667600 179.148267 133.533224 136.218473 0 -1 -1
2 1 1 -0.667600 172.774271 192.677405 138.805870 -1 -1 -1
3 1 1 -0.667600 149.452462 187.287421 176.261460 -1 0 -1
4 1 1 -0.667600 147.030256 178.437039 177.816846 -1 0 -1
5 1 1 -0.667600 140.840339 137.620852 134.826735 0 0 -1
6 1 1 -0.667600 145.783032 145.382391 137.380685 0 0 -1
7 1 1 -0.814300 138.219150 174.838532 196.337831 -1 0 -2
8 1 1 -0.667600 142.554820 170.708755 189.102103 -1 0 -2
9 1 1 -0.667600 151.944552 179.035512 154.254208 -1 0 0
10 1 1 -0.814300 151.860217 170.162532 150.319556 -1 0 0
11 1 1 -0.667600 150.760328 175.387310 180.093278 0 1 -1
12 1 1 -0.667600 148.740784 175.144850 170.898496 0 1 -1
13 1 1 -0.667600 141.979197 147.156120 174.154277 0 0 -1
14 1 1 -0.667600 133.200927 150.021758 170.721265 0 0 -1
15 1 1 -0.667600 189.512051 141.463328 141.443997 -1 0 -1
16 1 1 -0.667600 191.636974 144.274428 150.443572 -1 0 -1
17 1 1 -0.667600 169.023184 142.843882 144.311172 0 0 -1
18 1 1 -0.667600 171.638845 134.953840 149.015097 0 0 -1
19 1 1 -0.667600 151.549798 135.454706 167.694384 0 0 -1
20 1 1 -0.814300 141.978269 137.595165 167.612174 0 0 -1
21 1 1 -0.814300 152.743909 156.070716 172.807337 0 -1 -1
22 1 1 -0.667600 156.238112 162.785858 178.414566 0 -1 -1
23 1 1 -0.667600 188.528448 171.293415 192.416627 -1 0 0
24 1 1 -0.667600 184.660056 172.468175 183.355163 -1 0 0
25 1 1 -0.667600 184.672902 138.676047 146.714729 0 -1 -1
26 1 1 -0.667600 183.525214 147.999164 143.660790 0 -1 -1
27 1 1 -0.667600 176.415373 179.142995 195.382150 -1 0 -1
28 1 1 -0.667600 168.460085 178.160640 189.585947 -1 0 -1
29 1 1 -0.667600 170.881822 168.982082 155.263394 0 0 -1
30 1 1 -0.667600 168.999438 167.892525 164.396096 0 0 -1
31 1 1 -0.667600 185.520918 160.300842 180.423223 0 -1 -1
32 1 1 -0.814300 188.803513 158.876997 172.002284 0 -1 -1
33 1 1 -0.667600 166.669768 131.221016 134.497001 1 0 0
34 1 1 -0.667600 169.617793 135.520692 192.618643 1 0 -1
35 1 1 -0.667600 165.424873 168.839857 185.291901 -1 0 -2
36 1 1 -0.667600 166.231161 158.711777 185.554856 -1 0 -2
37 1 1 -0.667600 187.397568 168.277028 153.202576 0 -1 0
38 1 1 -0.814300 183.814731 173.053325 160.260593 0 -1 0
39 1 1 -0.667600 175.477356 179.811180 139.783802 0 -1 -1
40 1 1 -0.667600 167.130562 178.656497 144.546854 0 -1 -1
41 1 1 -0.667600 131.679630 147.925838 196.983331 0 0 -2
42 1 1 -0.814300 187.622178 148.501789 132.958427 0 -1 -1
43 1 1 -0.667600 181.125620 151.041266 178.697265 0 -1 -1
44 1 1 -0.667600 189.369743 149.115111 172.377215 0 -1 -1
45 1 1 -0.814300 163.658879 182.141774 173.836133 -1 0 0
46 1 1 -0.667600 168.890860 187.692440 167.766480 -1 0 0
47 1 1 -0.667600 140.650947 195.517109 151.285159 -1 0 -1
48 1 1 -0.667600 138.043613 135.151281 144.282688 0 0 -1
49 1 1 -0.667600 133.254621 171.626539 137.579263 -1 0 0
50 1 1 -0.667600 141.846463 169.084043 139.806355 -1 0 0
51 1 1 -0.814300 162.220574 155.339377 180.475784 0 0 -1
52 1 1 -0.667600 161.952013 148.065432 174.689105 0 0 -1
53 1 1 -0.667600 143.100507 182.588225 152.479631 0 0 -1
54 1 1 -0.667600 147.987788 189.517624 152.880800 0 0 -1
55 1 1 -0.667600 175.337623 196.262676 155.432513 -1 -1 -1
56 1 1 -0.667600 174.523992 138.835825 151.509846 0 -1 -1
57 1 1 -0.667600 168.906199 160.035222 170.415762 0 0 -1
58 1 1 -0.667600 160.673723 156.774526 172.724628 0 0 -1
59 1 1 -0.667600 180.153965 173.669279 160.867444 0 0 0
60 1 1 -0.667600 185.040223 174.716495 152.726768 0 0 0
61 1 1 -0.667600 152.780863 176.089461 138.062444 0 0 -1
62 1 1 -0.814300 146.138493 177.972514 143.859090 0 0 -1
63 1 1 -0.814300 142.012671 163.303217 148.470333 0 0 -1
64 1 1 -0.667600 135.481414 165.319890 155.272163 0 0 -1
65 1 1 -0.667600 188.009865 142.195735 133.379222 1 -1 0
66 1 1 -0.814300 194.847721 148.145259 136.994086 1 -1 0
67 1 1 -0.667600 136.126298 179.260390 193.342499 0 0 -1
68 1 1 -0.667600 193.212907 176.502049 191.595642 0 -1 -1
69 1 1 -0.814300 175.018641 175.013794 163.306720 0 -1 0
70 1 1 -0.667600 169.923912 173.626863 155.195692 0 -1 0
71 1 1 -0.667600 172.187282 133.507156 173.055709 1 -1 -2
72 1 1 -0.667600 163.616368 196.216330 176.050233 0 -1 -2
73 1 1 -0.667600 146.290279 171.142452 160.717078 -1 0 -1
74 1 1 -0.667600 152.502900 178.217662 160.317436 -1 0 -1
75 1 1 -0.667600 176.795722 150.808141 162.492201 0 1 -1
76 1 1 -0.814300 183.822438 157.161516 161.453733 0 1 -1
77 1 1 -0.667600 146.580257 172.728769 150.705615 -1 0 -2
78 1 1 -0.667600 147.758631 167.736000 142.680064 -1 0 -2
79 1 1 -0.667600 154.888662 170.802640 170.411348 -1 0 0
80 1 1 -0.667600 152.084899 165.918164 178.733386 -1 0 0
81 1 1 -0.667600 184.026384 131.652945 193.685182 -1 -1 -2
82 1 1 -0.667600 186.853138 188.102035 196.607814 -2 -1 -2
83 1 1 -0.667600 162.746526 180.937265 159.367623 -2 0 0
84 1 1 -0.667600 158.457799 172.772420 161.002522 -2 0 0
85 1 1 -0.667600 135.726605 152.248717 159.124542 -1 0 -1
86 1 1 -0.667600 133.958679 155.068137 150.458515 -1 0 -1
87 1 1 -0.667600 171.434030 190.603778 176.893289 -1 -2 -2
88 1 1 -0.667600 178.872052 132.103888 178.159234 0 -2 -2
89 1 1 -0.667600 178.828818 187.986721 189.625769 -1 0 0
90 1 1 -0.667600 178.954640 192.678896 197.197787 -1 0 0
91 1 1 -0.667600 136.073372 162.198090 170.959287 -1 1 0
92 1 1 -0.667600 137.127093 154.922965 175.213677 -1 1 0
93 1 1 -0.814300 151.910881 159.370743 144.981879 -1 1 -1
94 1 1 -0.667600 145.344584 156.492209 138.978063 -1 1 -1
95 1 1 -0.814300 182.805687 180.587844 197.275471 0 0 -1
96 1 1 -0.814300 185.483231 173.827626 191.096951 0 0 -1
97 1 1 -0.667600 167.649802 139.528846 181.734982 0 -1 -1
98 1 1 -0.667600 167.378437 136.262365 173.199334 0 -1 -1
99 1 1 -0.814300 149.121894 139.825292 149.942570 1 1 0
100 1 1 -0.667600 141.360658 142.048896 144.332708 1 1 0
101 1 1 -0.814300 146.841884 137.478007 156.235117 0 1 0
102 1 1 -0.814300 149.007067 145.917539 152.125128 0 1 0
103 1 1 -0.814300 167.954026 165.061567 171.941778 0 -1 0
104 1 1 -0.667600 162.751178 159.649641 166.792739 0 -1 0
105 1 1 -0.814300 142.362127 170.577099 134.671202 -2 1 -1
106 1 1 -0.667600 136.054827 163.225623 135.818126 -2 1 -1
107 1 1 -0.667600 135.150079 162.428718 163.406354 -1 1 -1
108 1 1 -0.814300 141.678436 165.849678 156.634069 -1 1 -1
109 1 1 -0.667600 185.353150 154.379847 181.513916 0 -1 -1
110 1 1 -0.667600 177.409261 156.073369 187.443224 0 -1 -1
111 1 1 -0.667600 157.447147 180.673458 138.881063 0 0 0
112 1 1 -0.814300 149.780648 183.541381 133.637141 0 0 0
113 1 1 -0.814300 133.415778 133.878166 159.950392 0 0 -1
114 1 1 -0.667600 194.295769 141.621765 157.406287 0 -1 -1
115 1 1 -0.667600 157.086858 187.863538 170.203570 0 1 -1
116 1 1 -0.814300 157.139272 179.429896 174.584380 0 1 -1
117 1 1 -0.667600 158.811270 140.879395 144.696643 1 1 -1
118 1 1 -0.667600 156.837342 141.907568 135.945553 1 1 -1
119 1 1 -0.667600 141.561311 151.055501 186.415386 0 1 0
120 1 1 -0.667600 138.087033 144.375072 181.429473 0 1 0
121 1 1 -0.667600 194.222759 175.654904 173.883925 0 -1 -1
122 1 1 -0.667600 132.052476 170.589123 181.560659 0 0 -1
123 1 1 -0.667600 195.271804 164.071521 133.508136 0 -1 -1
124 1 1 -0.667600 193.483820 162.723221 142.908628 0 -1 -1
125 1 1 -0.667600 133.014134 175.762411 155.244709 0 0 -1
126 1 1 -0.667600 190.483828 175.615090 150.707623 0 -1 -1
127 1 1 -0.667600 176.511563 149.967926 189.221388 0 0 -1
128 1 1 -0.667600 181.564787 156.971557 191.186865 0 0 -1
129 1 1 -0.667600 160.354129 193.138620 182.375518 0 -1 -2
130 1 1 -0.667600 159.681639 186.496531 190.090642 0 -1 -2
131 1 1 -0.667600 170.595357 194.082089 183.466663 0 0 -1
132 1 1 -0.667600 177.362476 134.923798 186.221217 1 0 -1
133 1 1 -0.667600 162.823560 175.520411 178.727265 0 -1 -1
134 1 1 -0.667600 170.494023 171.595495 182.359429 0 -1 -1
135 1 1 -0.667600 175.482330 155.830799 169.464413 0 -1 -1
136 1 1 -0.667600 174.394609 163.965883 164.557404 0 -1 -1
137 1 1 -0.667600 176.904797 160.029385 180.965194 1 -2 -2
138 1 1 -0.667600 181.073837 166.246710 175.368275 1 -2 -2
139 1 1 -0.667600 149.426720 140.515427 193.517079 0 0 -1
140 1 1 -0.667600 147.140105 132.247670 197.871598 0 0 -1
141 1 1 -0.667600 185.418563 178.762050 139.118337 -1 1 0
142 1 1 -0.667600 182.427623 187.868157 139.240930 -1 1 0
143 1 1 -0.667600 169.503486 194.246871 157.164050 0 0 0
144 1 1 -0.667600 162.868108 191.899464 150.228510 0 0 0
145 1 1 -0.667600 171.166220 175.544681 139.275174 0 -1 1
146 1 1 -0.667600 178.617022 179.096788 143.308587 0 -1 1
147 3 1 -0.667600 161.000848 135.349198 159.782995 0 -1 0
148 3 1 -0.667600 160.192385 136.027015 150.843295 0 -1 0
149 1 1 -0.667600 153.814602 190.819102 192.420362 -1 0 -1
150 1 1 -0.667600 143.694770 191.812332 191.747863 -1 0 -1
151 1 1 -0.667600 172.813625 150.838979 147.331211 0 0 0
152 1 1 -0.667600 177.336480 148.946646 139.453057 0 0 0
153 1 1 -0.667600 158.256352 194.967712 145.426309 -1 0 0
154 1 1 -0.667600 155.648557 186.190520 145.599896 -1 0 0
155 1 1 -0.814300 153.474757 151.562009 191.619654 -1 0 -1
156 1 1 -0.814300 150.867823 145.462916 184.586185 -1 0 -1
157 1 1 -0.667600 154.942243 185.204653 155.035556 -1 -1 0
158 1 1 -0.667600 162.181528 184.746542 148.525863 -1 -1 0
159 1 1 -0.814300 131.525841 153.154338 156.339245 0 1 0
160 1 1 -0.667600 139.195832 157.380353 160.158207 0 1 0
161 1 1 -0.667600 174.522919 169.272940 167.999983 0 -1 0
162 1 1 -0.814300 178.204004 169.408728 158.442650 0 -1 0
163 1 1 -0.667600 137.197264 178.231401 183.797963 -1 0 0
164 1 1 -0.814300 143.331926 183.563877 180.928254 -1 0 0
165 1 1 -0.667600 193.646104 175.584189 185.414673 -1 -1 -1
166 1 1 -0.667600 192.072810 167.192091 187.307642 -1 -1 -1
167 1 1 -0.667600 139.225395 172.049450 155.198992 -1 1 -1
168 1 1 -0.667600 134.516587 169.684166 146.581622 -1 1 -1
169 1 1 -0.667600 167.678809 179.447048 198.181316 -1 0 0
170 1 1 -0.814300 174.883049 172.303340 197.706326 -1 0 0
171 1 1 -0.667600 135.744787 133.772700 166.713421 0 0 0
172 1 1 -0.667600 139.631018 136.353375 158.389469 0 0 0
173 1 1 -0.667600 152.137294 135.842310 173.441554 0 0 0
174 1 1 -0.667600 143.912604 139.058648 175.747961 0 0 0
175 1 1 -0.667600 183.864607 184.407555 167.263491 -1 0 0
176 1 1 -0.667600 176.927913 188.865829 161.381680 -1 0 0
177 1 1 -0.814300 188.983371 160.352558 136.699862 0 0 0
178 1 1 -0.667600 184.599088 156.900613 144.080433 0 0 0
179 1 1 -0.667600 176.232914 172.543285 177.760116 -1 0 -1
180 1 1 -0.814300 176.504962 170.527304 187.443467 -1 0 -1
181 1 1 -0.667600 145.028216 177.136614 167.265217 0 0 -1
182 1 1 -0.667600 140.407654 169.165755 168.989710 0 0 -1
183 1 1 -0.814300 141.344702 140.645436 185.625255 0 -1 0
184 1 1 -0.667600 139.880586 148.819301 191.540756 0 -1 0
185 1 1 -0.667600 157.275168 174.624134 167.543187 0 0 0
186 1 1 -0.814300 152.903089 167.366994 162.440460 0 0 0
187 1 1 -0.667600 161.974587 157.348887 143.473936 0 0 0
188 1 1 -0.667600 165.789145 160.665415 151.998704 0 0 0
189 1 1 -0.814300 157.570707 156.299560 187.586625 0 0 0
190 1 1 -0.667600 160.706899 163.122025 192.249651 0 0 0
191 1 1 -0.667600 193.696915 138.452029 161.584306 0 -1 0
192 1 1 -0.667600 186.577092 144.919316 159.903859 0 -1 0
193 1 1 -0.667600 192.825884 191.104544 157.807800 0 0 0
194 1 1 -0.667600 187.064934 186.457392 151.116791 0 0 0
195 1 1 -0.814300 190.024324 162.653788 166.846583 0 -1 -1
196 1 1 -0.814300 188.416934 172.412833 164.539184 0 -1 -1
197 1 1 -0.814300 184.839873 153.853663 140.452002 0 -1 1
198 1 1 -0.667600 176.355702 156.406467 144.678563 0 -1 1
199 1 1 -0.667600 139.421180 188.693582 157.390656 -1 1 -1
200 1 1 -0.667600 133.877691 183.240881 158.751489 -1 1 -1
201 1 1 -0.667600 138.059220 184.106891 141.840336 -1 2 1
202 1 1 -0.814300 195.270691 188.341882 145.194104 -1 1 1
203 1 1 -0.667600 131.119207 193.248888 187.274037 -1 1 -1
204 1 1 -0.667600 195.576743 135.439511 190.922800 0 0 -1
205 1 1 -0.667600 178.479246 194.121948 141.787970 0 -1 0
206 1 1 -0.814300 175.468144 191.151599 150.354674 0 -1 0
207 1 1 -0.814300 178.934796 183.198845 172.099730 0 -1 -1
208 1 1 -0.814300 172.306694 181.364409 165.298937 0 -1 -1
209 1 1 -0.814300 147.870179 139.551610 182.688444 0 0 0
210 1 1 -0.814300 139.563739 141.086304 178.884526 0 0 0
211 1 1 -0.667600 154.014646 194.438755 139.959735 0 0 -1
212 1 1 -0.667600 147.276008 132.168105 141.546689 1 0 -1
213 4 1 -0.667600 151.755911 132.747397 180.923802 0 0 0
214 4 1 -0.814300 143.801329 192.749639 179.341163 -1 0 0
215 1 1 -0.667600 131.432182 188.129386 186.612080 0 1 -1
216 1 1 -0.667600 130.995923 195.227695 179.906999 0 1 -1
217 1 1 -0.814300 142.779486 168.566837 194.930700 -1 -1 0
218 1 1 -0.667600 134.691133 162.414626 194.125787 -1 -1 0
219 1 1 -0.667600 190.264802 156.888047 158.544254 0 0 0
220 1 1 -0.667600 186.900289 159.184386 167.493195 0 0 0
221 1 1 -0.667600 181.617880 171.063991 177.435082 -1 -1 -1
222 1 1 -0.667600 190.676131 168.652087 178.700756 -1 -1 -1
223 1 1 -0.667600 144.266929 161.283108 157.488061 -1 0 0
224 1 1 -0.814300 135.933959 158.373914 153.688023 -1 0 0
225 1 1 -0.667600 171.532993 146.003845 161.125318 -1 0 0
226 1 1 -0.667600 170.907778 142.089616 170.656610 -1 0 0
227 1 1 -0.814300 181.688262 137.571561 154.580246 0 0 0
228 1 1 -0.667600 185.030125 195.024496 158.736313 -1 0 0
229 1 1 -0.667600 148.114386 155.368410 153.419086 0 -1 0
230 1 1 -0.667600 158.235112 155.866738 155.176968 0 -1 0
231 1 1 -0.667600 175.151957 165.242790 133.784290 0 0 0
232 1 1 -0.667600 170.818373 156.840263 196.263461 0 0 -1
233 1 1 -0.667600 136.388779 195.051665 139.322832 -1 -1 1
234 1 1 -0.667600 142.434187 187.685876 138.857384 -1 -1 1
235 1 1 -0.667600 148.303008 175.259146 193.898011 -1 0 -1
236 1 1 -0.814300 140.630161 171.302036 132.559410 -1 0 0
237 1 1 -0.667600 171.006668 174.991592 147.871359 -1 0 1
238 1 1 -0.667600 166.511706 182.287365 150.776336 -1 0 1
239 1 1 -0.814300 184.912246 182.135075 148.710267 -1 0 -1
240 1 1 -0.814300 193.617384 180.378793 152.237528 -1 0 -1
241 1 1 -0.667600 165.807391 164.524110 134.158549 0 -1 0
242 1 1 -0.814300 167.314098 156.286034 140.081750 0 -1 0
243 1 1 -0.667600 131.500252 140.421756 182.827927 0 -1 0
244 1 1 -0.667600 188.656999 142.169355 177.714126 0 -2 0
245 1 1 -0.667600 131.644944 187.643987 170.078010 -1 1 0
246 1 1 -0.814300 195.671868 185.038019 161.358188 -1 0 0
247 1 1 -0.814300 158.743619 137.438008 163.162782 0 0 0
248 1 1 -0.667600 153.767104 131.207003 167.439908 0 0 0
249 1 1 -0.667600 174.618578 149.692046 152.659756 0 0 0
250 1 1 -0.814300 181.359121 153.143113 146.499384 0 0 0
251 1 1 -0.814300 174.048038 194.133787 193.236347 -1 0 -1
252 1 1 -0.667600 167.301171 190.915361 133.734853 -1 0 0
253 1 1 -0.667600 178.651031 157.381752 140.215809 0 -2 1
254 1 1 -0.814300 169.733717 156.139351 136.004074 0 -2 1
255 1 1 -0.667600 179.013333 173.097187 145.881565 0 -1 0
256 1 1 -0.667600 183.112946 165.685436 151.668670 0 -1 0
257 1 1 -0.814300 138.221224 148.855112 134.362189 1 -1 0
258 1 1 -0.667600 147.630034 147.065755 197.930722 1 -1 -1
259 1 1 -0.667600 159.176139 136.616588 191.001074 0 -1 -1
260 1 1 -0.667600 154.966357 194.542137 186.554200 -1 -1 -1
261 1 1 -0.814300 136.214131 186.075508 165.515903 -1 0 0
262 1 1 -0.667600 195.257058 182.225200 171.125261 -1 -1 0
263 1 1 -0.667600 189.088265 132.698004 190.124008 0 0 0
264 1 1 -0.667600 184.900070 141.245575 191.863136 0 0 0
265 1 1 -0.667600 165.724681 195.193726 162.333312 -1 -1 0
266 1 1 -0.667600 174.402292 195.766989 166.506333 -1 -1 0
267 1 1 -0.667600 153.076025 150.206730 140.195113 0 -1 0
268 1 1 -0.667600 154.809770 159.526114 140.946609 0 -1 0
269 1 1 -0.814300 195.173855 178.454929 134.951011 0 -1 -1
270 1 1 -0.667600 193.447978 187.473284 138.299915 0 -1 -1
271 1 1 -0.667600 183.124252 186.085022 185.518588 -1 0 0
272 1 1 -0.667600 178.428439 184.059564 177.059002 -1 0 0
273 1 1 -0.667600 180.096689 144.660456 170.314313 0 0 0
274 1 1 -0.814300 187.445901 141.835425 164.469911 0 0 0
275 1 1 -0.667600 144.128509 157.144771 178.167433 0 0 0
276 1 1 -0.814300 145.551804 150.855193 170.607044 0 0 0
277 1 1 -0.667600 132.382763 147.521155 164.947323 0 -1 0
278 1 1 -0.814300 133.423378 140.659954 172.649587 0 -1 0
279 1 1 -0.667600 178.017327 134.120966 146.934519 0 -1 -1
280 1 1 -0.814300 185.604794 195.812816 151.205176 -1 -1 -1
281 1 1 -0.667600 179.723540 146.163050 190.689429 0 -1 -1
282 1 1 -0.667600 171.732832 144.176053 195.773595 0 -1 -1
283 1 1 -0.667600 142.650193 154.376518 191.907186 0 0 -1
284 1 1 -0.667600 140.163363 157.394382 134.960080 0 0 0
285 1 1 -0.667600 189.988549 156.958708 192.338907 1 -1 0
286 1 1 -0.667600 193.178006 155.504089 183.377877 1 -1 0
287 1 1 -0.667600 152.940978 188.935252 165.716286 0 0 0
288 1 1 -0.814300 153.908772 194.919298 158.176379 0 0 0
289 1 1 -0.667600 138.526745 159.107392 148.800236 -1 0 0
290 1 1 -0.667600 132.947129 157.668330 140.803172 -1 0 0
291 1 1 -0.667600 148.142744 183.010057 192.626368 -2 0 0
292 1 1 -0.667600 141.250986 183.835638 133.865764 -2 0 1
293 1 1 -0.667600 164.897401 177.973494 164.937102 -1 -1 0
294 1 1 -0.667600 170.015597 184.821646 162.777570 -1 -1 0
295 1 1 -0.667600 143.567660 188.292298 179.600565 -1 0 0
296 1 1 -0.667600 145.126400 195.901710 172.608662 -1 0 0
297 1 1 -0.667600 150.173430 182.391879 185.256077 -1 0 0
298 1 1 -0.667600 142.216558 183.861815 190.010341 -1 0 0
299 1 1 -0.667600 142.140553 196.670534 167.142914 0 1 -1
300 1 1 -0.667600 135.891184 191.617679 171.141439 0 1 -1
301 1 1 -0.667600 177.418715 143.532367 184.234409 0 -1 0
302 1 1 -0.667600 186.658300 141.657713 183.170261 0 -1 0
303 1 1 -0.814300 192.888826 152.047574 155.750823 0 -1 1
304 1 1 -0.667600 190.742936 161.490691 156.874441 0 -1 1
305 1 1 -0.667600 190.519622 194.569421 183.720955 -1 -1 -1
306 1 1 -0.667600 192.298095 193.742421 193.485297 -1 -1 -1
307 1 1 -0.667600 159.198038 186.035374 133.986934 -1 0 0
308 1 1 -0.667600 155.621438 179.812760 194.842411 -1 0 -1
309 1 1 -0.814300 154.450657 141.222390 185.455733 0 0 0
310 1 1 -0.814300 146.008294 145.370217 185.675008 0 0 0
311 1 1 -0.667600 156.884918 141.183915 151.072851 0 0 0
312 1 1 -0.667600 162.995142 142.891104 158.287580 0 0 0
313 1 1 -0.667600 195.587985 192.119434 152.851847 -1 -1 0
314 1 1 -0.814300 186.593941 191.142597 155.595867 -1 -1 0
315 1 1 -0.667600 151.990526 144.028443 158.676130 0 0 0
316 1 1 -0.814300 147.170269 141.135733 165.814459 0 0 0
317 1 1 -0.667600 162.263699 152.334346 148.649956 0 -1 0
318 1 1 -0.814300 161.808583 157.282551 156.940301 0 -1 0
319 1 1 -0.667600 162.866107 135.717569 193.903815 0 0 0
320 1 1 -0.667600 155.791964 195.520626 195.953164 -1 0 0
321 1 1 -0.667600 137.362856 169.221815 184.387935 -1 0 0
322 1 1 -0.667600 130.657200 162.576724 186.904711 -1 0 0
323 1 1 -0.667600 161.040604 168.329691 145.453084 -1 -1 0
324 1 1 -0.814300 159.920812 159.861396 149.204585 -1 -1 0
325 1 1 -0.814300 159.756050 171.468733 136.646841 0 -1 0
326 1 1 -0.667600 157.532448 169.724915 193.495479 0 -1 -1
327 1 1 -0.667600 131.459280 147.734693 182.574473 0 0 -1
328 1 1 -0.814300 189.300260 148.837934 178.103283 0 -1 -1
329 1 1 -0.667600 172.625118 187.061821 185.750815 0 -1 0
330 1 1 -0.667600 165.582882 182.923119 190.849445 0 -1 0
331 1 1 -0.814300 152.725285 164.602325 143.978639 -1 -1 -1
332 1 1 -0.667600 160.353008 165.357179 150.335082 -1 -1 -1
333 1 1 -0.814300 189.171009 170.528115 197.398742 0 -1 0
334 1 1 -0.667600 180.289635 171.168328 195.749689 0 -1 0
335 1 1 -0.814300 165.921247 154.440370 192.215054 0 0 0
336 1 1 -0.667600 166.432725 163.676601 194.649767 0 0 0
337 1 1 -0.667600 177.779849 193.547273 160.511246 -1 0 0
338 1 1 -0.667600 184.581767 190.354663 166.588929 -1 0 0
339 1 1 -0.667600 174.838795 141.164986 168.064887 0 -2 0
340 1 1 -0.667600 180.617184 145.872160 161.727190 0 -2 0
341 1 1 -0.667600 171.336392 183.026656 174.832457 0 -1 0
342 1 1 -0.667600 163.745445 178.484911 171.257521 0 -1 0
343 1 1 -0.814300 153.073096 152.691486 197.089498 0 -1 -1
344 1 1 -0.814300 159.798367 158.887511 134.584178 0 -1 0
345 1 1 -0.667600 143.360823 146.128106 157.297326 0 1 0
346 1 1 -0.667600 144.633547 145.784221 166.758984 0 1 0
347 1 1 -0.667600 144.426573 133.368367 190.784288 0 0 0
348 1 1 -0.667600 135.360860 195.734522 191.287685 -1 0 0
349 1 1 -0.667600 151.704676 163.487683 164.991180 0 -1 0
350 1 1 -0.667600 148.809340 167.313514 156.492167 0 -1 0
351 1 1 -0.667600 181.165713 148.513129 151.030018 0 0 0
352 1 1 -0.667600 183.690179 141.093327 156.401554 0 0 0
353 1 1 -0.667600 141.501606 173.081436 174.084729 0 0 -1
354 1 1 -0.667600 137.391051 180.367187 169.005724 0 0 -1
355 1 1 -0.814300 194.970548 193.821909 141.431426 0 -1 0
356 1 1 -0.667600 136.057500 188.973702 147.154069 0 0 0
357 1 1 -0.667600 185.381476 150.004424 193.812068 0 0 0
358 1 1 -0.667600 194.733341 151.179585 191.524676 0 0 0
359 1 1 -0.667600 163.064553 165.648887 179.363516 0 0 0
360 1 1 -0.814300 168.241787 164.133181 186.910488 0 0 0
361 1 1 -0.814300 137.750839 145.205796 197.587646 -1 -1 0
362 1 1 -0.814300 132.447337 138.160841 197.618124 -1 -1 0
363 1 1 -0.667600 135.260549 178.979367 148.378382 -1 0 0
364 1 1 -0.667600 143.522607 182.760884 144.669099 -1 0 0
365 1 1 -0.667600 183.970181 131.616793 141.597036 -1 0 1
366 1 1 -0.667600 178.522503 139.431906 138.380278 -1 0 1
367 1 1 -0.814300 143.906425 139.893025 159.469977 -1 1 0
368 1 1 -0.667600 141.742975 196.470980 158.862478 -2 1 0
369 1 1 -0.667600 148.287441 149.034272 180.556273 0 0 0
370 1 1 -0.667600 143.946888 157.307810 183.681375 0 0 0
371 1 1 -0.667600 165.590275 152.068672 165.758320 -1 0 0
372 1 1 -0.667600 166.332722 144.818871 171.758948 -1 0 0
373 1 1 -0.667600 156.054480 140.405692 165.757252 -1 0 0
374 1 1 -0.667600 153.952686 150.148663 166.402008 -1 0 0
375 1 1 -0.814300 147.602629 138.612908 141.828821 0 -1 -1
376 1 1 -0.667600 152.650283 145.758411 145.722233 0 -1 -1
377 1 1 -0.667600 177.956709 162.411650 137.577461 0 0 0
378 1 1 -0.667600 170.848106 165.015933 143.157084 0 0 0
379 1 1 -0.667600 142.858767 196.469684 136.889737 -1 0 1
380 1 1 -0.667600 150.420737 136.431782 136.082718 0 0 1
381 1 1 -0.667600 135.464135 191.707334 181.538601 -1 1 0
382 1 1 -0.667600 133.445698 135.355297 179.305739 0 1 0
383 1 1 -0.667600 194.357980 137.703301 152.140776 -1 0 0
384 1 1 -0.814300 196.143436 196.283222 145.233172 -2 0 0
385 1 1 -0.814300 148.552351 184.720573 181.395660 -1 -1 -1
386 1 1 -0.814300 156.867770 179.390180 178.801370 -1 -1 -1
387 1 1 -0.667600 193.573608 182.883121 144.934573 -1 -2 1
388 1 1 -0.667600 130.545359 174.361262 143.380656 -1 -1 1
389 1 1 -0.667600 163.348580 145.292420 140.171477 0 0 1
390 1 1 -0.814300 157.403299 148.092054 145.515299 0 0 1
391 1 1 -0.667600 193.232794 195.825377 172.228372 -1 0 0
392 1 1 -0.667600 184.049716 131.076171 173.986120 0 0 0
393 1 1 -0.667600 153.589026 160.491102 193.921127 0 -1 0
394 1 1 -0.667600 152.494408 169.170438 189.023599 0 -1 0
395 1 1 -0.814300 142.935237 188.178585 162.729494 -1 1 0
396 1 1 -0.667600 147.247848 195.052241 157.169354 -1 1 0
397 1 1 -0.814300 168.944644 185.957280 178.115513 1 0 1
398 1 1 -0.814300 175.896119 184.217652 184.880965 1 0 1
399 1 1 -0.814300 189.986290 164.852448 137.947235 0 -1 1
400 1 1 -0.667600 192.764658 162.439918 194.690062 0 -1 0
401 1 1 -0.667600 195.881292 150.473011 144.840431 0 -1 0
402 1 1 -0.667600 133.903500 142.255259 148.788426 0 0 0
403 1 1 -0.667600 160.926650 188.634639 156.389628 0 0 0
404 1 1 -0.667600 165.924029 196.748166 154.050125 0 0 0
405 1 1 -0.667600 135.047709 174.110662 174.563028 -1 1 0
406 1 1 -0.667600 193.546595 172.041998 168.388632 -1 0 0
407 1 1 -0.814300 193.666525 182.371755 174.803301 -1 1 1
408 1 1 -0.667600 185.157025 186.405242 172.917496 -1 1 1
409 1 1 -0.667600 162.810661 146.854042 180.840986 0 -1 0
410 1 1 -0.667600 154.362650 147.149047 181.094798 0 -1 0
411 1 1 -0.667600 188.709483 136.159221 167.955122 0 -1 -1
412 1 1 -0.667600 185.865488 145.517449 167.417798 0 -1 -1
413 1 1 -0.667600 145.719042 160.838402 174.379571 0 0 0
414 1 1 -0.667600 149.717558 155.014653 168.107162 0 0 0
415 1 1 -0.667600 186.744576 184.369623 179.945307 -1 -1 0
416 1 1 -0.667600 190.353317 193.346106 178.068045 -1 -1 0
417 1 1 -0.814300 157.002317 155.608303 182.420681 0 0 0
418 1 1 -0.667600 165.720054 153.018774 180.665654 0 0 0
419 1 1 -0.667600 147.289310 159.182969 190.976041 1 -1 -1
420 1 1 -0.667600 150.290471 163.247305 133.581086 1 -1 0
421 1 1 -0.667600 133.254320 171.606792 152.349604 -1 0 0
422 1 1 -0.667600 193.055664 164.292981 152.764725 -1 -1 0
423 1 1 -0.667600 167.194590 178.982784 157.436614 0 -2 0
424 1 1 -0.667600 171.670693 177.555381 166.919481 0 -2 0
425 1 1 -0.667600 180.492628 156.893197 166.421052 1 -1 0
426 1 1 -0.814300 186.203492 150.543773 162.916180 1 -1 0
427 1 1 -0.667600 164.303558 149.690038 137.246102 0 0 0
428 1 1 -0.667600 167.216550 146.783518 194.605670 0 0 -1
429 1 1 -0.814300 167.222439 152.380065 161.286883 0 0 0
430 1 1 -0.667600 170.205566 155.866410 152.423322 0 0 0
431 1 1 -0.667600 159.314478 148.384624 193.243886 1 -1 -1
432 1 1 -0.814300 160.284732 141.854951 186.532073 1 -1 -1

Bonds

1 2 1 2
2 1 1 33
3 1 1 281
4 1 2 144
5 1 2 153
6 2 3 4
7 1 3 19
8 1 3 296
9 1 4 80
10 1 4 321
11 2 5 6
12 1 5 257
13 1 5 384
14 1 6 102
15 1 6 212
16 2 7 8
17 1 7 388
18 1 8 236
19 1 8 308
20 2 9 10
21 1 9 350
22 1 9 403
23 1 10 268
24 2 11 12
25 1 11 116
26 1 11 353
27 1 12 405
28 2 13 14
29 1 13 120
30 1 13 316
31 1 14 114
32 1 14 195
33 2 15 16
34 1 15 152
35 1 15 352
36 1 16 48
37 1 16 277
38 2 17 18
39 1 17 118
40 1 17 249
41 1 18 265
42 1 18 337
43 2 19 20
44 1 19 315
45 1 20 191
46 2 21 22
47 1 21 52
48 1 22 103
49 1 22 189
50 2 23 24
51 1 24 334
52 1 24 415
53 2 25 26
54 1 25 114
55 1 25 355
56 1 26 56
57 1 26 192
58 2 27 28
59 1 27 89
60 1 27 96
61 1 28 190
62 1 28 397
63 2 29 30
64 1 29 198
65 1 29 430
66 1 30 79
67 1 30 104
68 2 31 32
69 1 31 222
70 1 31 322
71 2 33 34
72 1 33 380
73 1 34 264
74 1 34 389
75 2 35 36
76 1 35 326
77 1 36 127
78 1 36 410
79 2 37 38
80 1 37 178
81 1 38 69
82 2 39 40
83 1 39 205
84 1 39 231
85 1 40 70
86 2 41 42
87 1 41 177
88 1 41 284
89 2 43 44
90 1 43 137
91 1 43 220
92 1 44 191
93 1 44 277
94 2 45 46
95 1 45 424
96 1 46 115
97 1 46 408
98 3 47 48
99 1 47 383
100 2 49 50
101 1 49 201
102 1 50 201
103 2 51 52
104 1 51 190
105 1 52 98
106 3 53 54
107 1 53 261
108 1 54 211
109 2 55 56
110 1 55 339
111 1 56 117
112 2 57 58
113 1 57 418
114 1 57 425
115 1 58 409
116 2 59 60
117 1 59 161
118 1 59 294
119 1 60 70
120 1 60 304
121 2 61 62
122 1 61 154
123 1 61 307
124 1 62 421
125 2 63 64
126 1 63 77
127 1 64 91
128 2 65 66
129 1 65 302
130 1 66 86
131 2 67 68
132 1 67 215
133 1 67 291
134 1 68 95
135 1 68 218
136 2 69 70
137 2 71 72
138 1 71 273
139 1 72 259
140 2 73 74
141 1 73 125
142 1 73 413
143 1 74 83
144 1 74 342
145 2 75 76
146 1 75 249
147 1 76 250
148 2 77 78
149 1 77 154
150 1 78 111
151 1 78 289
152 2 79 80
153 1 79 359
154 1 80 321
155 3 81 82
156 1 81 281
157 1 82 142
158 2 83 84
159 1 83 176
160 1 84 293
161 1 84 332
162 2 85 86
163 1 85 346
164 1 85 426
165 1 86 94
166 2 87 88
167 1 87 89
168 1 87 386
169 1 88 305
170 1 88 329
171 2 89 90
172 1 90 271
173 2 91 92
174 1 91 349
175 2 93 94
176 1 93 108
177 2 95 96
178 2 97 98
179 1 97 226
180 1 97 431
181 1 98 312
182 2 99 100
183 1 99 247
184 1 100 172
185 1 100 376
186 2 101 102
187 1 101 299
188 2 103 104
189 2 105 106
190 1 105 364
191 1 106 123
192 2 107 108
193 1 107 125
194 1 107 167
195 2 109 110
196 1 109 327
197 1 109 400
198 1 110 335
199 2 111 112
200 1 112 379
201 2 113 114
202 1 113 280
203 2 115 116
204 1 115 181
205 2 117 118
206 1 117 404
207 2 119 120
208 1 119 218
209 1 119 393
210 1 120 174
211 2 121 122
212 1 121 207
213 1 121 353
214 1 122 215
215 1 122 275
216 2 123 124
217 1 123 269
218 1 124 168
219 1 124 289
220 2 125 126
221 1 126 141
222 2 127 128
223 1 127 409
224 1 128 358
225 1 128 377
226 3 129 130
227 1 129 432
228 1 130 297
229 2 131 132
230 1 131 252
231 1 132 251
232 2 133 134
233 1 133 185
234 1 133 329
235 1 134 330
236 1 134 398
237 2 135 136
238 1 135 412
239 1 135 418
240 1 136 179
241 1 136 425
242 2 137 138
243 2 139 140
244 1 139 319
245 1 139 343
246 1 140 233
247 1 140 348
248 2 141 142
249 1 141 387
250 2 143 144
251 1 143 294
252 2 145 146
253 1 145 334
254 1 146 238
255 3 147 148
256 2 149 150
257 1 149 319
258 1 150 291
259 1 150 385
260 2 151 152
261 1 151 256
262 1 151 312
263 1 152 279
264 2 153 154
265 1 153 380
266 2 155 156
267 1 155 336
268 1 156 173
269 2 157 158
270 1 157 185
271 1 157 287
272 1 158 252
273 1 158 404
274 2 159 160
275 1 159 345
276 1 160 413
277 2 161 162
278 1 162 237
279 2 163 164
280 1 163 166
281 1 163 262
282 1 164 381
283 2 165 166
284 1 165 221
285 1 165 298
286 2 167 168
287 1 167 181
288 1 168 290
289 2 169 170
290 1 169 326
291 2 171 172
292 1 171 216
293 1 171 313
294 1 172 402
295 2 173 174
296 1 173 410
297 1 174 210
298 2 175 176
299 1 175 406
300 1 176 239
301 2 177 178
302 1 178 303
303 2 179 180
304 1 179 424
305 1 180 360
306 2 181 182
307 1 182 405
308 1 182 406
309 2 183 184
310 1 184 322
311 1 184 347
312 2 185 186
313 1 186 188
314 2 187 188
315 1 187 378
316 1 188 371
317 2 189 190
318 2 191 192
319 1 192 219
320 2 193 194
321 1 193 368
322 1 194 228
323 1 194 270
324 2 195 196
325 1 196 221
326 2 197 198
327 1 197 285
328 1 198 255
329 2 199 200
330 1 199 245
331 1 199 396
332 1 200 262
333 2 201 202
334 1 202 365
335 2 203 204
336 1 204 358
337 1 204 379
338 3 205 206
339 2 207 208
340 1 208 423
341 2 209 210
342 1 209 369
343 2 211 212
344 1 212 364
345 3 213 214
346 2 215 216
347 2 217 218
348 1 217 235
349 2 219 220
350 1 219 340
351 1 220 222
352 2 221 222
353 2 223 224
354 1 223 276
355 1 223 414
356 1 224 401
357 2 225 226
358 1 225 340
359 1 225 351