Generated by ZY code

200 atoms
2 atom types
223 bonds
2 bond types
0 angles
0 angle types
0 dihedrals
0 dihedral types
0 impropers
0 improper types

97.0336062124695218 102.9663937875304782 xlo xhi
97.0336062124695218 102.9663937875304782 ylo yhi
97.0336062124695218 102.9663937875304782 zlo zhi

Masses

1 1.000
2 1.500

Pair Coeffs

1 1.000000 1.000000
2 1.000000 1.000000

Bond Coeffs

1 100.000000 1.200000
2 100.000000 1.200000

Atoms # full

139 70 1 0.000000 97.323915 99.225579 97.826266 0 -1 1
25 13 1 0.000000 98.235307 98.123084 97.452109 1 1 1
27 14 1 0.000000 97.179685 99.423659 98.802164 -1 1 2
125 63 1 0.000000 98.435282 99.671323 99.830777 1 0 -1
28 14 1 0.000000 98.170450 99.891262 98.695031 -1 1 2
91 46 1 0.000000 97.188082 97.294760 99.105500 -1 0 0
128 64 1 0.000000 98.233204 99.815664 97.551749 1 -1 0
96 48 1 0.000000 97.937343 98.803943 99.214955 -2 3 2
4 2 1 0.000000 98.064334 97.987335 98.617892 2 0 2
26 13 1 0.000000 97.076293 98.310998 97.339270 0 2 1
95 48 1 0.000000 98.376308 98.940269 98.111202 -1 2 2
169 89 2 0.000000 98.028726 97.787309 99.689118 -1 1 1
166 86 2 0.000000 98.495546 97.136015 97.989132 2 1 2
14 7 1 0.000000 98.945759 99.233216 99.008182 -1 1 1
74 37 1 0.000000 97.361092 97.485998 97.973888 0 0 0
167 87 2 0.000000 97.378693 99.317544 99.931840 -1 2 -1
61 31 1 0.000000 98.081987 98.292897 101.323965 0 0 0
67 34 1 0.000000 98.631087 99.581100 102.471180 0 1 -1
58 29 1 0.000000 97.217845 97.289523 100.192006 2 1 0
55 28 1 0.000000 98.231415 99.254737 100.836178 -1 -1 0
135 68 1 0.000000 97.835445 99.083064 101.874678 0 -1 -1
82 41 1 0.000000 97.459002 98.424833 100.510976 -2 0 -1
66 33 1 0.000000 98.640668 97.611530 100.725760 2 -3 0
56 28 1 0.000000 97.110224 99.482733 100.913869 0 -2 0
137 69 1 0.000000 98.164432 97.358601 101.751736 1 0 0
118 59 1 0.000000 98.737859 98.520605 102.152361 1 -1 0
62 31 1 0.000000 97.267483 97.539508 101.248523 0 0 0
183 103 2 0.000000 97.585618 98.052347 102.321409 0 2 0
81 41 1 0.000000 98.563002 98.562331 100.106668 -2 0 -1
136 68 1 0.000000 98.997337 99.421970 101.537679 0 -1 -1
18 9 1 0.000000 97.446819 99.842748 102.682177 1 0 -1
117 59 1 0.000000 97.897900 98.932210 102.899438 1 -1 0
73 37 1 0.000000 97.966746 97.256597 102.858356 0 0 -1
150 75 1 0.000000 98.985266 97.656784 102.796926 -1 1 -1
102 51 1 0.000000 97.446408 101.375628 98.030534 0 0 1
173 93 2 0.000000 98.483476 100.793203 98.127870 0 0 1
94 47 1 0.000000 97.950240 101.080289 99.112185 -1 1 1
80 40 1 0.000000 97.792920 102.433438 97.563844 0 0 0
127 64 1 0.000000 97.320197 100.318462 98.159112 0 0 0
176 96 2 0.000000 97.516935 102.134957 99.537631 -1 -2 -1
154 77 1 0.000000 98.443379 101.626764 97.448548 0 0 -1
163 83 2 0.000000 97.302995 100.275851 99.430140 1 2 -1
92 46 1 0.000000 98.316444 102.895823 99.013782 -2 0 0
126 63 1 0.000000 98.943141 100.477378 99.130809 1 0 -1
51 26 1 0.000000 98.536930 101.876378 99.526107 0 -2 -1
93 47 1 0.000000 98.225037 101.996977 98.426753 -2 2 1
101 51 1 0.000000 97.156466 102.431752 98.410702 -1 1 1
79 40 1 0.000000 98.873742 102.572065 97.103122 -2 2 0
153 77 1 0.000000 97.693004 100.732047 97.209330 0 0 -1
38 19 1 0.000000 98.756921 100.606970 97.109042 -3 1 2
30 15 1 0.000000 98.244068 101.081149 102.268257 1 0 -1
197 117 2 0.000000 98.703084 102.577845 101.198116 -1 -3 -3
121 61 1 0.000000 97.515906 101.713169 102.744762 0 0 -1
65 33 1 0.000000 98.169462 102.739656 100.081148 0 -2 0
138 69 1 0.000000 97.571042 102.518511 100.967299 0 0 0
87 44 1 0.000000 97.985370 100.981725 101.182203 0 1 0
194 114 2 0.000000 98.229684 101.744205 100.559298 0 -1 0
20 10 1 0.000000 97.657345 101.805364 101.672617 1 0 0
164 84 2 0.000000 97.212792 102.670160 102.113543 0 -1 2
165 85 2 0.000000 97.607196 100.239030 100.437437 1 2 -3
29 15 1 0.000000 98.301829 102.281576 102.266950 1 0 -1
88 44 1 0.000000 98.844605 101.616567 101.551627 0 1 0
162 82 2 0.000000 97.975479 100.041054 101.631136 2 0 0
97 49 1 0.000000 98.656731 100.260179 100.829122 -1 -1 0
122 61 1 0.000000 97.285878 100.808339 101.975906 -1 1 -1
33 17 1 0.000000 98.510998 100.898048 100.000306 -1 0 1
34 17 1 0.000000 97.380532 101.247612 100.077753 -3 2 1
7 4 1 0.000000 100.105674 97.691528 99.459963 -1 -1 1
23 12 1 0.000000 100.087047 97.927611 98.403908 0 1 1
178 98 2 0.000000 100.298117 99.830840 98.081687 0 1 2
146 73 1 0.000000 99.986040 98.306724 97.380651 1 0 1
182 102 2 0.000000 99.650595 98.987199 98.127261 1 -3 0
75 38 1 0.000000 99.123741 97.243553 99.797014 0 0 0
3 2 1 0.000000 99.080324 98.181943 99.193515 3 -1 2
8 4 1 0.000000 99.899775 98.872793 99.405695 -1 -1 1
111 56 1 0.000000 100.959672 97.836703 97.451797 0 -1 0
13 7 1 0.000000 99.906514 99.903750 99.166622 -1 1 1
5 3 1 0.000000 99.636041 97.302334 97.665643 -1 0 0
76 38 1 0.000000 99.293896 97.242935 98.650214 0 0 0
78 39 1 0.000000 99.133063 99.961860 98.194625 1 -1 0
187 107 2 0.000000 100.919869 98.378856 99.166095 0 -1 0
24 12 1 0.000000 100.703346 98.857231 98.013517 0 1 1
172 92 2 0.000000 100.906883 99.433522 99.067052 0 -3 1
189 109 2 0.000000 99.094933 98.820658 97.164630 -1 4 -2
145 73 1 0.000000 99.053388 98.081945 98.077674 1 0 1
143 72 1 0.000000 100.306402 99.264768 97.051012 -1 2 -1
68 34 1 0.000000 99.527173 99.930824 97.230475 0 1 0
31 16 1 0.000000 99.079579 98.501433 101.126890 -1 1 -2
90 45 1 0.000000 99.594510 98.063167 100.307911 0 -1 -2
70 35 1 0.000000 99.671610 97.142838 100.780672 1 0 1
191 111 2 0.000000 100.117710 99.056440 101.145136 3 1 -1
105 53 1 0.000000 100.511394 98.605970 100.244691 -1 0 -1
120 60 1 0.000000 100.036807 97.471717 102.624592 -1 0 1
149 75 1 0.000000 99.230359 97.618971 101.666831 -1 1 -1
184 104 2 0.000000 99.422139 99.225971 100.366214 1 0 -1
133 67 1 0.000000 99.840668 99.690718 102.125693 0 1 1
119 60 1 0.000000 99.849303 98.584827 102.225308 -1 0 1
32 16 1 0.000000 100.184309 98.006601 101.315467 -1 1 -2
112 56 1 0.000000 100.859252 98.041139 102.199349 0 -1 -1
129 65 1 0.000000 100.800227 99.128503 101.971115 -1 1 0
89 45 1 0.000000 100.634761 97.548990 100.459371 0 -1 -2
71 36 1 0.000000 100.361484 99.633897 100.110709 1 -1 1
181 101 2 0.000000 100.177963 101.878517 98.184112 -1 0 0
52 26 1 0.000000 99.113358 101.436022 98.613157 0 -2 -1
37 19 1 0.000000 99.538635 101.296109 97.587873 -3 1 2
46 23 1 0.000000 100.781173 101.818315 97.216776 -3 0 1
142 71 1 0.000000 100.572347 100.781995 99.396491 2 -3 -2
6 3 1 0.000000 100.748371 102.809051 97.722726 -1 -1 0
115 58 1 0.000000 99.943725 102.398382 97.135191 1 0 0
116 58 1 0.000000 99.209851 102.285853 98.058844 1 0 0
77 39 1 0.000000 99.936337 100.774853 98.493768 1 -1 0
85 43 1 0.000000 100.614713 101.825024 99.251417 -1 1 0
190 110 2 0.000000 100.392639 102.731535 98.746898 1 0 0
198 118 2 0.000000 99.515884 102.279478 99.168072 1 0 1
86 43 1 0.000000 100.227000 102.677396 99.932283 -2 2 0
45 23 1 0.000000 100.515627 100.724141 97.578734 -3 0 1
161 81 2 0.000000 99.552822 101.264466 99.535107 1 -1 2
156 78 1 0.000000 100.386204 101.967918 102.159252 -1 -2 0
192 112 2 0.000000 99.333361 102.597310 102.099984 -4 0 0
141 71 1 0.000000 100.247669 101.668326 100.232710 1 -2 -2
110 55 1 0.000000 100.367799 102.931321 101.665349 -2 -1 -1
131 66 1 0.000000 99.779857 102.118778 101.272709 -1 0 -1
132 66 1 0.000000 99.298348 102.175975 100.208639 -1 0 -1
171 91 2 0.000000 99.885285 100.700323 102.507076 0 1 -1
44 22 1 0.000000 99.323175 101.227195 100.650651 -1 -1 1
188 108 2 0.000000 100.771151 101.410943 101.230501 1 0 1
195 115 2 0.000000 99.214050 101.602639 102.541829 0 2 0
193 113 2 0.000000 100.432714 100.647649 100.569636 -1 2 0
155 78 1 0.000000 99.819226 101.076776 101.529394 -1 -2 0
158 79 1 0.000000 100.666257 100.439078 101.611628 -1 0 1
69 35 1 0.000000 100.716460 102.394626 100.861219 0 0 1
134 67 1 0.000000 99.015084 100.494434 101.862150 0 1 1
9 5 1 0.000000 100.910660 100.044646 102.568243 -1 -2 1
98 49 1 0.000000 99.779491 100.040783 101.137706 -1 -1 0
43 22 1 0.000000 99.461691 100.221072 100.060249 -1 -1 1
12 6 1 0.000000 101.171370 97.618695 98.472845 -1 1 1
144 72 1 0.000000 101.288180 99.719178 97.634665 -1 2 -1
160 80 1 0.000000 101.966117 98.036620 99.116484 0 -1 0
99 50 1 0.000000 102.256540 98.992757 97.612082 2 -2 0
174 94 2 0.000000 102.126746 97.215090 99.677516 1 1 0
63 32 1 0.000000 102.232652 99.165563 99.361629 2 1 -1
177 97 2 0.000000 102.890241 98.449882 98.480155 0 1 1
47 24 1 0.000000 102.201818 97.141172 98.491746 2 0 0
159 80 1 0.000000 101.094121 97.304978 99.529586 0 -1 0
175 95 2 0.000000 102.222102 99.703457 98.402682 0 0 1
186 106 2 0.000000 102.143465 97.932924 97.816463 -2 0 1
64 32 1 0.000000 101.637915 98.734981 98.440693 2 1 -1
57 29 1 0.000000 102.891968 98.278320 99.555508 3 -1 0
42 21 1 0.000000 101.220774 98.778538 97.059304 -3 3 -1
49 25 1 0.000000 102.814128 97.315863 97.038329 1 -1 1
36 18 1 0.000000 102.329578 99.879071 100.147592 -1 0 -1
148 74 1 0.000000 100.993309 99.602763 100.944466 -1 1 -1
21 11 1 0.000000 102.917520 98.603837 101.456360 -1 -1 0
50 25 1 0.000000 102.505854 97.771317 101.940269 1 -1 0
60 30 1 0.000000 102.005041 99.295778 101.103772 1 -3 -2
200 120 2 0.000000 101.844340 98.620048 101.938785 0 1 0
17 9 1 0.000000 102.705199 98.889647 102.506541 1 -1 -1
109 55 1 0.000000 101.479541 97.364915 101.569101 -2 0 -1
196 116 2 0.000000 102.744285 99.701155 101.854970 -2 1 0
22 11 1 0.000000 102.395802 98.740774 100.341375 -1 -1 0
147 74 1 0.000000 101.193245 98.431214 101.100459 -1 1 -1
41 21 1 0.000000 101.804133 97.777527 102.713642 -3 3 -2
152 76 1 0.000000 102.287611 97.871517 100.895313 -1 -1 -1
106 53 1 0.000000 101.539533 98.019699 100.148952 -1 0 -1
72 36 1 0.000000 101.435444 99.079404 100.042634 1 -1 1
100 50 1 0.000000 101.841962 99.534768 102.605745 0 0 -1
15 8 1 0.000000 101.595101 101.330333 99.079141 -2 -1 0
140 70 1 0.000000 102.514908 100.001913 97.395612 0 -2 1
83 42 1 0.000000 101.253850 101.430753 98.057766 -1 -1 -1
185 105 2 0.000000 102.252737 101.844801 98.147963 0 -1 1
11 6 1 0.000000 101.351199 102.382601 98.662460 -1 0 1
107 54 1 0.000000 101.790035 102.799362 97.498139 -1 -1 -1
84 42 1 0.000000 102.207633 100.727702 98.259861 -1 -1 -1
10 5 1 0.000000 101.587392 100.666803 97.359983 -1 -2 2
53 27 1 0.000000 102.827329 101.218736 99.010358 0 -1 -1
54 27 1 0.000000 102.050039 100.339824 99.223848 0 -1 -1
48 24 1 0.000000 102.331041 102.161011 99.184566 0 1 0
16 8 1 0.000000 101.149493 100.408468 98.456591 -2 -1 0
1 1 1 0.000000 101.441135 102.239616 99.778461 -1 -1 0
114 57 1 0.000000 102.639184 101.108591 97.322295 0 -3 -1
124 62 1 0.000000 101.291877 100.091755 99.870474 -1 -1 -1
113 57 1 0.000000 102.721611 102.269873 97.344611 -1 -2 -1
108 54 1 0.000000 101.815415 101.715895 97.050045 -1 -1 -1
19 10 1 0.000000 102.513431 101.643402 102.131013 0 0 0
151 76 1 0.000000 102.408946 102.640324 101.330355 -2 -1 -1
168 88 2 0.000000 101.776748 101.744322 100.816336 -2 -1 -1
157 79 1 0.000000 101.726840 101.116537 101.602232 0 -1 1
179 99 2 0.000000 100.996477 102.860825 102.603119 0 2 3
199 119 2 0.000000 102.265443 100.536522 102.336679 -2 1 0
35 18 1 0.000000 101.535052 100.533565 100.783576 -1 0 -1
123 62 1 0.000000 101.178236 101.268451 100.091200 0 -2 -1
103 52 1 0.000000 101.410620 102.122232 101.870609 0 -1 -1
170 90 2 0.000000 102.097988 102.716314 102.391264 0 -1 1
39 20 1 0.000000 102.825152 101.450403 101.048920 0 1 -1
2 1 1 0.000000 102.558982 102.198640 100.255692 -1 -1 0
130 65 1 0.000000 101.597222 100.000312 101.725775 2 -2 0
59 30 1 0.000000 102.539271 100.422343 101.139927 1 -3 -2
104 52 1 0.000000 101.018005 101.102257 102.394228 0 -1 -1
180 100 2 0.000000 101.618859 102.865743 100.580880 0 4 0
40 20 1 0.000000 102.242825 101.007551 100.068880 0 1 -1

Velocities 

139 0.551201 0.091183 -0.309784
25 -0.235395 0.278005 0.249119
27 -0.629085 -0.066512 -0.134619
125 0.173978 -0.034583 0.116666
28 0.139101 -0.223492 0.343473
91 0.107050 0.093237 0.416890
128 -0.088097 0.301844 0.191848
96 0.073142 -0.062747 -0.311723
4 -0.282020 -0.480385 -0.669453
26 -0.184788 -0.150706 0.263753
95 0.119027 0.459692 0.194406
169 0.246011 -0.381422 -0.314290
166 0.198290 0.234802 0.004763
14 0.121039 0.083937 0.480719
74 -0.176686 0.398380 0.173274
167 0.152778 -0.246243 0.010857
61 -0.155847 -0.229130 -0.584901
67 -0.462848 -0.236614 0.082153
58 -0.114019 0.210438 0.198966
55 0.378085 -0.284113 0.532360
135 -0.137552 0.246764 0.213868
82 -0.160078 0.014779 -0.032437
66 -0.057405 -0.174159 -0.327370
56 0.014902 0.158946 -0.214076
137 0.386335 0.039724 0.297490
118 -0.519595 -0.169225 -0.227327
62 0.518419 0.310439 0.321741
183 -0.330137 0.139107 0.099777
81 0.577658 -0.155993 0.174885
136 0.071804 0.060478 0.049579
18 0.098687 -0.549337 -0.431972
117 0.078876 0.271917 0.004057
73 -0.071471 0.166634 -0.253730
150 0.108244 0.260561 0.656657
102 0.189821 -0.406727 -0.127579
173 -0.021633 -0.217613 0.233300
94 -0.040549 0.388850 -0.524878
80 -0.209736 -0.308654 0.140761
127 0.081172 0.113015 0.429960
176 -0.167009 -0.325623 -0.555200
154 -0.090424 0.416827 0.393238
163 -0.119382 0.033324 -0.010580
92 -0.783613 0.119674 0.371175
126 -0.090599 0.011224 -0.100063
51 -0.305553 0.004148 -0.395580
93 -0.103538 -0.041903 0.181430
101 0.200261 0.716790 -0.121002
79 0.304760 -0.091305 -0.661565
153 -0.205115 0.154472 0.214407
38 -0.271786 -0.260607 -0.170854
30 -0.011440 0.045131 0.008414
197 -0.096695 0.014512 0.033091
121 -0.375431 -0.000697 -0.323869
65 -0.166224 -0.267139 -0.016076
138 -0.474879 -0.202068 0.153742
87 -0.057956 -0.051381 -0.243726
194 0.075620 -0.218268 0.083846
20 -0.217724 0.150559 -0.135561
164 0.077204 0.313357 -0.069754
165 0.117903 -0.174855 0.380075
29 -0.258005 -0.107676 -0.264125
88 0.159384 0.794500 -0.540393
162 0.313082 0.455667 -0.383558
97 0.081594 0.217113 -0.072953
122 -0.586099 0.041671 0.144008
33 0.139163 -0.290060 -0.139349
34 -0.462671 -0.251858 0.299739
7 -0.073610 0.166078 0.420473
23 -0.163748 0.385603 -0.153854
178 -0.220462 0.033905 0.013378
146 -0.345804 0.169392 0.396732
182 -0.360510 -0.099532 0.248517
75 0.040076 -0.078904 -0.302747
3 -0.387229 -0.006945 -0.677267
8 -0.043972 -0.006088 -0.268247
111 -0.226615 -0.071962 0.176668
13 -0.178941 -0.275434 -0.187141
5 -0.127300 0.051296 0.346713
76 0.781482 0.595023 0.215214
78 -0.034551 0.232925 0.391237
187 0.127816 0.397024 0.239248
24 0.200667 0.359961 -0.169997
172 -0.233942 -0.436595 -0.456980
189 0.127722 0.096915 0.389041
145 0.306391 0.022888 0.028675
143 0.052871 -0.093032 0.637995
68 0.052887 0.059076 -0.702409
31 -0.307584 -0.481720 0.286204
90 -0.022784 -0.069170 -0.193497
70 0.050962 0.147523 0.377665
191 0.061137 0.180321 0.091654
105 -0.069694 -0.105945 0.119577
120 0.396779 -0.350984 -0.450806
149 0.842433 0.228891 -0.018248
184 0.076609 -0.025349 0.524426
133 0.408558 -0.040760 0.427576
119 -0.241668 0.183640 0.344949
32 0.558195 0.153563 -0.123518
112 0.291653 0.090667 -0.231091
129 -0.177100 -0.002459 -0.311391
89 0.613338 -0.215692 0.336324
71 -0.371347 -0.142577 -0.291830
181 -0.310304 0.102591 0.170821
52 -0.157981 0.094038 0.045175
37 -0.284471 0.143830 0.092639
46 -0.031586 0.039539 -0.304455
142 -0.217276 0.794962 0.122984
6 -0.091446 -0.042422 0.359174
115 0.103496 0.118273 -0.121136
116 0.019348 0.069456 -0.399506
77 0.306780 -0.000895 0.152201
85 0.368962 0.128541 -0.412988
190 0.022290 -0.069299 -0.064565
198 -0.350920 -0.609302 -0.497267
86 -0.376393 0.281396 -0.009101
45 -0.320146 0.215519 0.258658
161 0.136466 -0.218782 -0.397862
156 -0.306176 0.165110 0.228129
192 0.124692 0.119457 0.030344
141 -0.039776 -0.503905 0.051156
110 -0.136977 -0.447004 -0.375118
131 0.249296 -0.422309 -0.136058
132 0.136412 0.121007 0.166824
171 0.101423 0.147514 0.016405
44 -0.316796 -0.467975 0.133842
188 -0.071923 -0.039128 0.221123
195 0.074897 0.026144 -0.034672
193 -0.296824 0.138134 -0.383215
155 -0.085898 -0.069067 0.287188
158 0.586562 0.256940 -0.001734
69 -0.153605 0.266983 0.194670
134 0.305638 -0.730070 0.063505
9 -0.269443 -0.139444 0.333333
98 -0.049256 -0.216514 0.356088
43 -0.050684 -0.011223 0.265176
12 -0.024315 0.818969 0.348007
144 0.782984 -0.739355 0.084038
160 -0.512669 0.135481 -0.216357
99 0.024804 -0.107038 0.371771
174 0.399845 -0.128411 -0.305977
63 -0.347591 -0.046933 -0.573460
177 -0.331880 -0.047979 -0.383010
47 0.041730 -0.080085 -0.261102
159 0.436907 -0.185162 -0.104609
175 -0.246869 0.239615 -0.362040
186 -0.349089 -0.343172 0.116697
64 -0.595951 -0.235473 0.120107
57 0.366571 -0.710267 -0.239408
42 0.366037 -0.120580 -0.499465
49 0.425093 -0.009406 0.377975
36 -0.094870 0.103506 -0.015188
148 -0.054041 -0.075152 -0.227510
21 -0.021122 -0.044128 0.128053
50 0.138789 -0.120118 0.236167
60 -0.039070 0.452038 -0.202016
200 0.053255 -0.089056 0.181416
17 0.350329 0.431728 0.255878
109 0.217302 -0.467731 0.175053
196 -0.228445 0.142420 0.163731
22 0.143064 -0.615899 0.136028
147 -0.225693 -0.159328 -0.469631
41 -0.574627 -0.152595 0.424764
152 -0.366569 -0.111914 0.385429
106 0.003004 0.116194 0.004010
72 0.550718 -0.199657 -0.227764
100 0.155224 -0.420810 -0.051216
15 0.185931 0.089424 0.305738
140 0.020471 -0.185196 -0.193274
83 0.282684 -0.188536 0.202157
185 -0.001509 0.617770 0.065772
11 0.370895 -0.627185 -0.005553
107 0.278148 0.561411 -0.160378
84 0.223899 0.281426 -0.302367
10 0.027584 -0.228721 0.164192
53 0.767020 0.206630 0.222416
54 0.279703 -0.269571 -0.086471
48 -0.324081 -0.313588 0.003126
16 0.485864 0.181126 -0.047095
1 -0.104468 0.122920 -0.487083
114 -0.136212 -0.081724 -0.116509
124 -0.019832 -0.068718 -0.073853
113 -0.261642 0.309989 0.158970
108 -0.601040 -0.038275 0.172880
19 0.292232 0.238514 -0.253753
151 0.374609 -0.263731 -0.091445
168 0.063404 -0.562985 -0.167878
157 0.020233 0.091508 0.181063
179 0.027631 0.281612 0.495976
199 -0.184837 -0.334838 0.245443
35 0.648424 -0.253047 0.388225
123 -0.045504 0.263956 -0.264360
103 -0.104902 0.346102 -0.393031
170 -0.404444 0.039897 -0.199440
39 0.275118 0.003267 -0.374140
2 0.423976 0.281458 0.332414
130 -0.068381 0.214929 0.045656
59 0.264931 -0.229610 -0.231902
104 0.158973 0.166337 0.201115
180 0.217978 0.395121 0.289315
40 -0.264928 0.488004 -0.638810

Bonds

1 1 139 140
2 1 25 26
3 1 27 28
4 1 125 126
5 1 91 92
6 1 95 96
7 2 169 3
8 2 169 66
9 2 169 75
10 2 169 82
11 2 166 5
12 2 166 93
13 2 166 4
14 2 166 25
15 2 167 22
16 2 167 27
17 2 167 57
18 2 167 63
19 1 61 62
20 1 67 68
21 1 55 56
22 1 135 136
23 1 137 138
24 2 183 17
25 2 183 49
26 2 183 62
27 2 183 118
28 1 81 82
29 1 117 118
30 1 73 74
31 2 173 94
32 2 173 102
33 2 173 128
34 2 173 153
35 1 127 128
36 2 176 48
37 2 176 53
38 2 176 92
39 2 176 101
40 2 163 28
41 2 163 34
42 2 163 36
43 2 163 54
44 1 51 52
45 1 93 94
46 1 101 102
47 1 79 80
48 1 153 154
49 2 197 29
50 2 197 70
51 2 197 132
52 2 197 138
53 1 121 122
54 1 65 66
55 1 87 88
56 2 194 20
57 2 194 44
58 2 194 88
59 2 194 65
60 2 164 73
61 2 164 137
62 2 164 121
63 2 165 55
64 2 165 59
65 2 165 87
66 2 165 125
67 1 29 30
68 2 162 18
69 2 162 30
70 2 162 56
71 2 162 67
72 1 97 98
74 1 7 8
75 1 23 24
76 2 178 13
77 2 178 68
78 2 178 78
79 2 178 143
80 2 182 14
81 1 75 76
82 1 3 4
83 1 111 112
84 1 13 14
85 1 5 6
86 2 187 72
87 2 187 106
88 2 172 8
89 2 172 16
90 2 172 24
91 2 172 71
92 2 189 95
93 2 189 117
94 1 145 146
95 1 143 144
96 1 31 32
97 2 191 119
98 2 191 133
99 2 191 136
100 2 191 31
101 1 105 106
102 1 149 150
103 2 184 81
104 2 184 90
105 2 184 98
106 2 184 105
107 1 133 134
108 1 119 120
109 1 129 130
110 1 89 90
111 1 71 72
112 2 181 6
113 2 181 52
114 2 181 83
115 2 181 85
116 1 37 38
117 1 115 116
118 1 77 78
119 1 85 86
120 2 190 7
121 2 190 76
122 2 190 23
123 2 190 86
124 2 198 116
125 1 45 46
126 2 161 33
127 2 161 43
128 2 161 51
129 2 161 77
130 2 192 156
131 2 192 110
132 2 192 120
133 2 192 150
134 1 141 142
135 1 131 132
136 2 171 9
137 2 171 37
138 2 171 45
139 2 171 104
140 2 188 103
141 2 188 123
142 2 188 131
143 2 188 141
144 2 195 115
145 2 195 38
146 2 193 124
147 2 193 155
148 2 193 142
149 2 193 148
150 1 155 156
151 1 69 70
152 1 9 10
153 1 43 44
154 1 99 100
155 2 174 2
156 2 174 47
157 2 174 58
158 2 174 91
159 1 63 64
160 2 177 26
161 2 177 160
162 2 177 99
163 2 177 96
164 1 47 48
165 1 159 160
166 2 175 64
167 2 175 127
168 2 175 139
169 2 175 144
170 2 186 12
171 2 186 74
172 2 186 107
173 2 186 111
174 1 57 58
175 1 49 50
176 1 21 22
177 2 200 21
178 2 200 42
179 2 200 112
180 2 200 129
181 1 17 18
182 1 109 110
183 2 196 122
184 2 196 130
185 2 196 100
186 2 196 135
187 1 147 148
188 1 41 42
189 1 15 16
190 1 83 84
191 2 185 11
192 2 185 15
193 2 185 84
194 2 185 108
195 1 11 12
196 1 107 108
197 1 53 54
198 1 1 2
199 1 113 114
200 1 19 20
201 1 151 152
202 2 168 1
203 2 168 35
204 2 168 40
205 2 168 69
206 1 157 158
207 2 179 41
208 2 179 46
209 2 199 10
210 2 199 140
211 2 199 157
212 2 199 114
213 1 35 36
214 1 123 124
215 1 103 104
216 2 170 19
217 2 170 50
218 2 170 109
219 2 170 113
220 1 39 40
221 1 59 60
222 2 180 89
223 2 180 152
224 2 180 159

