ITEM: TIMESTEP
0
ITEM: NUMBER OF ATOMS
200
ITEM: BOX BOUNDS pp pp pp
9.7033606212469522e+01 1.0296639378753048e+02
9.7033606212469522e+01 1.0296639378753048e+02
9.7033606212469522e+01 1.0296639378753048e+02
ITEM: ATOMS id mol type x y z
1 1 1 101.441 102.24 99.7785
2 1 1 102.559 102.199 100.256
3 2 1 99.0803 98.1819 99.1935
4 2 1 98.0643 97.9873 98.6179
5 3 1 99.636 97.3023 97.6656
6 3 1 100.748 102.809 97.7227
7 4 1 100.106 97.6915 99.46
8 4 1 99.8998 98.8728 99.4057
9 5 1 100.911 100.045 102.568
10 5 1 101.587 100.667 97.36
11 6 1 101.351 102.383 98.6625
12 6 1 101.171 97.6187 98.4728
13 7 1 99.9065 99.9037 99.1666
14 7 1 98.9458 99.2332 99.0082
15 8 1 101.595 101.33 99.0791
16 8 1 101.149 100.408 98.4566
17 9 1 102.705 98.8896 102.507
18 9 1 97.4468 99.8427 102.682
19 10 1 102.513 101.643 102.131
20 10 1 97.6573 101.805 101.673
21 11 1 102.918 98.6038 101.456
22 11 1 102.396 98.7408 100.341
23 12 1 100.087 97.9276 98.4039
24 12 1 100.703 98.8572 98.0135
25 13 1 98.2353 98.1231 97.4521
26 13 1 97.0763 98.311 97.3393
27 14 1 97.1797 99.4237 98.8022
28 14 1 98.1704 99.8913 98.695
29 15 1 98.3018 102.282 102.267
30 15 1 98.2441 101.081 102.268
31 16 1 99.0796 98.5014 101.127
32 16 1 100.184 98.0066 101.315
33 17 1 98.511 100.898 100
34 17 1 97.3805 101.248 100.078
35 18 1 101.535 100.534 100.784
36 18 1 102.33 99.8791 100.148
37 19 1 99.5386 101.296 97.5879
38 19 1 98.7569 100.607 97.109
39 20 1 102.825 101.45 101.049
40 20 1 102.243 101.008 100.069
41 21 1 101.804 97.7775 102.714
42 21 1 101.221 98.7785 97.0593
43 22 1 99.4617 100.221 100.06
44 22 1 99.3232 101.227 100.651
45 23 1 100.516 100.724 97.5787
46 23 1 100.781 101.818 97.2168
47 24 1 102.202 97.1412 98.4917
48 24 1 102.331 102.161 99.1846
49 25 1 102.814 97.3159 97.0383
50 25 1 102.506 97.7713 101.94
51 26 1 98.5369 101.876 99.5261
52 26 1 99.1134 101.436 98.6132
53 27 1 102.827 101.219 99.0104
54 27 1 102.05 100.34 99.2238
55 28 1 98.2314 99.2547 100.836
56 28 1 97.1102 99.4827 100.914
57 29 1 102.892 98.2783 99.5555
58 29 1 97.2178 97.2895 100.192
59 30 1 102.539 100.422 101.14
60 30 1 102.005 99.2958 101.104
61 31 1 98.082 98.2929 101.324
62 31 1 97.2675 97.5395 101.249
63 32 1 102.233 99.1656 99.3616
64 32 1 101.638 98.735 98.4407
65 33 1 98.1695 102.74 100.081
66 33 1 98.6407 97.6115 100.726
67 34 1 98.6311 99.5811 102.471
68 34 1 99.5272 99.9308 97.2305
69 35 1 100.716 102.395 100.861
70 35 1 99.6716 97.1428 100.781
71 36 1 100.361 99.6339 100.111
72 36 1 101.435 99.0794 100.043
73 37 1 97.9667 97.2566 102.858
74 37 1 97.3611 97.486 97.9739
75 38 1 99.1237 97.2436 99.797
76 38 1 99.2939 97.2429 98.6502
77 39 1 99.9363 100.775 98.4938
78 39 1 99.1331 99.9619 98.1946
79 40 1 98.8737 102.572 97.1031
80 40 1 97.7929 102.433 97.5638
81 41 1 98.563 98.5623 100.107
82 41 1 97.459 98.4248 100.511
83 42 1 101.254 101.431 98.0578
84 42 1 102.208 100.728 98.2599
85 43 1 100.615 101.825 99.2514
86 43 1 100.227 102.677 99.9323
87 44 1 97.9854 100.982 101.182
88 44 1 98.8446 101.617 101.552
89 45 1 100.635 97.549 100.459
90 45 1 99.5945 98.0632 100.308
91 46 1 97.1881 97.2948 99.1055
92 46 1 98.3164 102.896 99.0138
93 47 1 98.225 101.997 98.4268
94 47 1 97.9502 101.08 99.1122
95 48 1 98.3763 98.9403 98.1112
96 48 1 97.9373 98.8039 99.215
97 49 1 98.6567 100.26 100.829
98 49 1 99.7795 100.041 101.138
99 50 1 102.257 98.9928 97.6121
100 50 1 101.842 99.5348 102.606
101 51 1 97.1565 102.432 98.4107
102 51 1 97.4464 101.376 98.0305
103 52 1 101.411 102.122 101.871
104 52 1 101.018 101.102 102.394
105 53 1 100.511 98.606 100.245
106 53 1 101.54 98.0197 100.149
107 54 1 101.79 102.799 97.4981
108 54 1 101.815 101.716 97.05
109 55 1 101.48 97.3649 101.569
110 55 1 100.368 102.931 101.665
111 56 1 100.96 97.8367 97.4518
112 56 1 100.859 98.0411 102.199
113 57 1 102.722 102.27 97.3446
114 57 1 102.639 101.109 97.3223
115 58 1 99.9437 102.398 97.1352
116 58 1 99.2099 102.286 98.0588
117 59 1 97.8979 98.9322 102.899
118 59 1 98.7379 98.5206 102.152
119 60 1 99.8493 98.5848 102.225
120 60 1 100.037 97.4717 102.625
121 61 1 97.5159 101.713 102.745
122 61 1 97.2859 100.808 101.976
123 62 1 101.178 101.268 100.091
124 62 1 101.292 100.092 99.8705
125 63 1 98.4353 99.6713 99.8308
126 63 1 98.9431 100.477 99.1308
127 64 1 97.3202 100.318 98.1591
128 64 1 98.2332 99.8157 97.5517
129 65 1 100.8 99.1285 101.971
130 65 1 101.597 100 101.726
131 66 1 99.7799 102.119 101.273
132 66 1 99.2983 102.176 100.209
133 67 1 99.8407 99.6907 102.126
134 67 1 99.0151 100.494 101.862
135 68 1 97.8354 99.0831 101.875
136 68 1 98.9973 99.422 101.538
137 69 1 98.1644 97.3586 101.752
138 69 1 97.571 102.519 100.967
139 70 1 97.3239 99.2256 97.8263
140 70 1 102.515 100.002 97.3956
141 71 1 100.248 101.668 100.233
142 71 1 100.572 100.782 99.3965
143 72 1 100.306 99.2648 97.051
144 72 1 101.288 99.7192 97.6347
145 73 1 99.0534 98.0819 98.0777
146 73 1 99.986 98.3067 97.3807
147 74 1 101.193 98.4312 101.1
148 74 1 100.993 99.6028 100.944
149 75 1 99.2304 97.619 101.667
150 75 1 98.9853 97.6568 102.797
151 76 1 102.409 102.64 101.33
152 76 1 102.288 97.8715 100.895
153 77 1 97.693 100.732 97.2093
154 77 1 98.4434 101.627 97.4485
155 78 1 99.8192 101.077 101.529
156 78 1 100.386 101.968 102.159
157 79 1 101.727 101.117 101.602
158 79 1 100.666 100.439 101.612
159 80 1 101.094 97.305 99.5296
160 80 1 101.966 98.0366 99.1165
161 81 2 99.5528 101.264 99.5351
162 82 2 97.9755 100.041 101.631
163 83 2 97.303 100.276 99.4301
164 84 2 97.2128 102.67 102.114
165 85 2 97.6072 100.239 100.437
166 86 2 98.4955 97.136 97.9891
167 87 2 97.3787 99.3175 99.9318
168 88 2 101.777 101.744 100.816
169 89 2 98.0287 97.7873 99.6891
170 90 2 102.098 102.716 102.391
171 91 2 99.8853 100.7 102.507
172 92 2 100.907 99.4335 99.0671
173 93 2 98.4835 100.793 98.1279
174 94 2 102.127 97.2151 99.6775
175 95 2 102.222 99.7035 98.4027
176 96 2 97.5169 102.135 99.5376
177 97 2 102.89 98.4499 98.4802
178 98 2 100.298 99.8308 98.0817
179 99 2 100.996 102.861 102.603
180 100 2 101.619 102.866 100.581
181 101 2 100.178 101.879 98.1841
182 102 2 99.6506 98.9872 98.1273
183 103 2 97.5856 98.0523 102.321
184 104 2 99.4221 99.226 100.366
185 105 2 102.253 101.845 98.148
186 106 2 102.143 97.9329 97.8165
187 107 2 100.92 98.3789 99.1661
188 108 2 100.771 101.411 101.231
189 109 2 99.0949 98.8207 97.1646
190 110 2 100.393 102.732 98.7469
191 111 2 100.118 99.0564 101.145
192 112 2 99.3334 102.597 102.1
193 113 2 100.433 100.648 100.57
194 114 2 98.2297 101.744 100.559
195 115 2 99.2141 101.603 102.542
196 116 2 102.744 99.7012 101.855
197 117 2 98.7031 102.578 101.198
198 118 2 99.5159 102.279 99.1681
199 119 2 102.265 100.537 102.337
200 120 2 101.844 98.62 101.939
ITEM: TIMESTEP
1000
ITEM: NUMBER OF ATOMS
200
ITEM: BOX BOUNDS pp pp pp
9.7003793459267399e+01 1.0299620654073260e+02
9.7033606212469522e+01 1.0296639378753048e+02
9.7033606212469522e+01 1.0296639378753048e+02
ITEM: ATOMS id mol type x y z
1 1 1 101.521 102.253 99.7953
2 1 1 102.614 102.214 100.27
3 2 1 99.0957 98.1449 99.2148
4 2 1 98.0405 97.9162 98.6316
5 3 1 99.542 97.3522 97.6101
6 3 1 100.669 102.894 97.7505
7 4 1 100.104 97.6898 99.4477
8 4 1 99.9642 98.8455 99.2526
9 5 1 100.88 100.1 102.635
10 5 1 101.611 100.743 97.3879
11 6 1 101.379 102.408 98.7119
12 6 1 101.258 97.5956 98.4692
13 7 1 99.9288 99.8909 99.1091
14 7 1 98.9319 99.2159 99.0792
15 8 1 101.709 101.393 99.1354
16 8 1 101.053 100.583 98.5523
17 9 1 102.744 98.8658 102.486
18 9 1 97.433 99.8495 102.673
19 10 1 102.541 101.674 102.141
20 10 1 97.6202 101.775 101.62
21 11 1 102.978 98.5549 101.47
22 11 1 102.446 98.662 100.35
23 12 1 100.157 97.9228 98.3993
24 12 1 100.728 98.8531 98.0118
25 13 1 98.2901 98.1173 97.4887
26 13 1 97.1517 98.3112 97.3141
27 14 1 97.1459 99.3611 98.8183
28 14 1 98.1264 99.9245 98.6616
29 15 1 98.2338 102.28 102.255
30 15 1 98.1509 101.077 102.226
31 16 1 99.0796 98.5188 101.051
32 16 1 100.144 98.0651 101.312
33 17 1 98.4839 100.814 100.021
34 17 1 97.3239 101.197 100.132
35 18 1 101.563 100.604 100.736
36 18 1 102.322 99.8709 100.181
37 19 1 99.4467 101.285 97.5758
38 19 1 98.7264 100.569 97.0308
39 20 1 102.744 101.455 101.052
40 20 1 102.263 101.064 100.025
41 21 1 101.843 97.7964 102.728
42 21 1 101.324 98.7874 97.0607
43 22 1 99.5288 100.235 100.047
44 22 1 99.2179 101.165 100.65
45 23 1 100.542 100.898 97.56
46 23 1 100.869 101.968 97.2755
47 24 1 102.3 97.0893 98.4867
48 24 1 102.421 102.163 99.2291
49 25 1 102.827 97.3702 97.0277
50 25 1 102.498 97.7576 101.946
51 26 1 98.5169 101.813 99.4827
52 26 1 99.1417 101.402 98.6126
53 27 1 102.873 101.217 99.1024
54 27 1 102.073 100.341 99.2434
55 28 1 98.1961 99.1928 100.836
56 28 1 97.0452 99.3941 100.94
57 29 1 102.996 98.2588 99.5519
58 29 1 97.2469 97.3146 100.217
59 30 1 102.533 100.395 101.066
60 30 1 101.976 99.2718 101.103
61 31 1 98.0915 98.2695 101.307
62 31 1 97.2076 97.5011 101.235
63 32 1 102.28 99.0821 99.3545
64 32 1 101.653 98.6367 98.3863
65 33 1 98.2116 102.733 100.062
66 33 1 98.6698 97.63 100.676
67 34 1 98.569 99.6828 102.454
68 34 1 99.5144 99.8481 97.2117
69 35 1 100.746 102.391 100.82
70 35 1 99.7072 97.1246 100.765
71 36 1 100.372 99.6331 100.047
72 36 1 101.41 99.0965 100.05
73 37 1 97.9069 97.2653 102.839
74 37 1 97.3524 97.4355 97.9552
75 38 1 99.185 97.1935 99.7913
76 38 1 99.2879 97.2379 98.64
77 39 1 99.9571 100.794 98.5094
78 39 1 99.1647 99.9818 98.1642
79 40 1 98.859 102.56 97.0956
80 40 1 97.7513 102.356 97.5082
81 41 1 98.5614 98.5215 100.087
82 41 1 97.4653 98.392 100.478
83 42 1 101.316 101.506 98.1114
84 42 1 102.213 100.749 98.2752
85 43 1 100.621 101.76 99.2493
86 43 1 100.218 102.645 99.92
87 44 1 98.0797 100.942 101.191
88 44 1 98.8699 101.627 101.567
89 45 1 100.652 97.5505 100.529
90 45 1 99.549 98.0451 100.25
91 46 1 97.1678 97.3613 99.0943
92 46 1 98.3314 102.8 98.9853
93 47 1 98.204 101.905 98.4086
94 47 1 97.8978 100.969 99.0806
95 48 1 98.4229 99.0039 98.1679
96 48 1 97.9469 98.7742 99.2109
97 49 1 98.6736 100.14 100.799
98 49 1 99.7776 100.062 101.095
99 50 1 102.284 98.9543 97.6058
100 50 1 101.905 99.592 102.628
101 51 1 97.2532 102.425 98.4791
102 51 1 97.3984 101.364 98.042
103 52 1 101.315 102.217 101.866
104 52 1 101.021 101.163 102.412
105 53 1 100.446 98.5908 100.22
106 53 1 101.528 98.0208 100.179
107 54 1 101.767 102.759 97.6172
108 54 1 101.875 101.751 97.0235
109 55 1 101.419 97.4788 101.647
110 55 1 100.315 102.968 101.644
111 56 1 101.031 97.8974 97.5033
112 56 1 100.793 98.1499 102.281
113 57 1 102.705 102.335 97.3908
114 57 1 102.65 101.12 97.388
115 58 1 99.914 102.403 97.1573
116 58 1 99.1645 102.267 98.0552
117 59 1 97.9244 98.9597 102.957
118 59 1 98.6884 98.4875 102.162
119 60 1 99.8161 98.6022 102.237
120 60 1 100.006 97.4794 102.601
121 61 1 97.4237 101.654 102.716
122 61 1 97.1805 100.824 101.845
123 62 1 101.138 101.314 100.077
124 62 1 101.252 100.149 99.844
125 63 1 98.4671 99.6537 99.8734
126 63 1 98.925 100.474 99.098
127 64 1 97.2736 100.3 98.2061
128 64 1 98.2226 99.8154 97.5763
129 65 1 100.841 99.2055 101.982
130 65 1 101.681 100.064 101.687
131 66 1 99.7941 102.06 101.233
132 66 1 99.2541 102.146 100.207
133 67 1 99.9017 99.7774 102.125
134 67 1 98.969 100.483 101.801
135 68 1 97.7981 99.0804 101.919
136 68 1 98.9587 99.4147 101.566
137 69 1 98.1084 97.236 101.759
138 69 1 97.5538 102.488 100.886
139 70 1 97.2793 99.2595 97.7883
140 70 1 102.506 100.025 97.4375
141 71 1 100.165 101.618 100.317
142 71 1 100.474 100.749 99.4422
143 72 1 100.38 99.2599 97.059
144 72 1 101.334 99.7174 97.621
145 73 1 99.1012 98.1528 98.1404
146 73 1 99.9991 98.2823 97.3497
147 74 1 101.13 98.4981 101.081
148 74 1 100.994 99.6866 100.932
149 75 1 99.2102 97.6413 101.599
150 75 1 98.9262 97.6566 102.719
151 76 1 102.387 102.695 101.358
152 76 1 102.207 97.8636 100.952
153 77 1 97.626 100.717 97.2334
154 77 1 98.4147 101.558 97.3202
155 78 1 99.8363 101.051 101.528
156 78 1 100.281 101.927 102.231
157 79 1 101.743 101.165 101.642
158 79 1 100.743 100.446 101.588
159 80 1 101.101 97.2583 99.5365
160 80 1 102.015 97.9962 99.1314
161 81 2 99.5258 101.25 99.5774
162 82 2 97.8818 100.046 101.586
163 83 2 97.2423 100.256 99.448
164 84 2 97.1437 102.641 102.118
165 85 2 97.5803 100.189 100.462
166 86 2 98.442 97.0796 97.9575
167 87 2 97.3296 99.2963 99.9482
168 88 2 101.783 101.808 100.851
169 89 2 98.0474 97.7262 99.6627
170 90 2 102.037 102.708 102.43
171 91 2 99.9105 100.769 102.544
172 92 2 100.949 99.471 99.0036
173 93 2 98.4646 100.827 98.0661
174 94 2 102.192 97.2227 99.7007
175 95 2 102.234 99.6803 98.3675
176 96 2 97.5063 102.138 99.5884
177 97 2 102.976 98.3869 98.482
178 98 2 100.392 99.9169 98.0317
179 99 2 100.97 102.925 102.588
180 100 2 101.659 102.876 100.605
181 101 2 100.14 101.855 98.1929
182 102 2 99.6674 99.0263 98.1429
183 103 2 97.5261 98.0571 102.222
184 104 2 99.4391 99.2273 100.347
185 105 2 102.318 101.89 98.1932
186 106 2 102.23 97.9128 97.8341
187 107 2 100.961 98.3465 99.2011
188 108 2 100.807 101.417 101.249
189 109 2 99.0956 98.8016 97.2029
190 110 2 100.398 102.768 98.762
191 111 2 100.113 99.0813 101.195
192 112 2 99.2844 102.612 102.075
193 113 2 100.453 100.641 100.592
194 114 2 98.2289 101.716 100.548
195 115 2 99.2326 101.605 102.534
196 116 2 102.784 99.6837 101.882
197 117 2 98.6978 102.578 101.122
198 118 2 99.5211 102.26 99.1744
199 119 2 102.313 100.557 102.383
200 120 2 101.855 98.574 101.901
ITEM: TIMESTEP
2000
ITEM: NUMBER OF ATOMS
200
ITEM: BOX BOUNDS pp pp pp
9.6973681082914368e+01 1.0302631891708563e+02
9.7033606212469522e+01 1.0296639378753048e+02
9.7033606212469522e+01 1.0296639378753048e+02
ITEM: ATOMS id mol type x y z
1 1 1 101.584 102.206 99.7571
2 1 1 102.703 102.215 100.228
3 2 1 99.0764 98.1234 99.1721
4 2 1 98.0258 97.9354 98.5632
5 3 1 99.6213 97.3383 97.6254
6 3 1 100.723 102.866 97.7446
7 4 1 100.136 97.7203 99.5295
8 4 1 99.923 98.831 99.3972
9 5 1 100.891 100.11 102.669
10 5 1 101.652 100.715 97.414
11 6 1 101.411 102.434 98.6565
12 6 1 101.26 97.6585 98.4484
13 7 1 99.8447 99.8532 99.1068
14 7 1 98.8439 99.186 99.0549
15 8 1 101.771 101.317 99.0831
16 8 1 101.292 100.382 98.4646
17 9 1 102.748 98.8689 102.509
18 9 1 97.3964 99.8355 102.707
19 10 1 102.55 101.668 102.053
20 10 1 97.6018 101.772 101.661
21 11 1 102.97 98.5765 101.459
22 11 1 102.418 98.705 100.355
23 12 1 100.1 97.9479 98.4713
24 12 1 100.746 98.8047 97.9829
25 13 1 98.228 98.113 97.4824
26 13 1 97.0988 98.2909 97.39
27 14 1 97.0943 99.4495 98.8623
28 14 1 98.1102 99.9159 98.6795
29 15 1 98.2995 102.23 102.239
30 15 1 98.168 101.058 102.265
31 16 1 99.0529 98.5356 101.102
32 16 1 100.106 98.0269 101.397
33 17 1 98.4593 100.851 99.9829
34 17 1 97.3626 101.273 100.115
35 18 1 101.555 100.564 100.749
36 18 1 102.402 99.8347 100.198
37 19 1 99.5351 101.281 97.5786
38 19 1 98.7372 100.608 97.0745
39 20 1 102.866 101.444 101.035
40 20 1 102.302 101.01 100.052
41 21 1 101.794 97.8023 102.643
42 21 1 101.29 98.8048 96.985
43 22 1 99.3638 100.198 100.015
44 22 1 99.2626 101.186 100.603
45 23 1 100.555 100.795 97.5785
46 23 1 100.862 101.888 97.2696
47 24 1 102.289 97.2464 98.5333
48 24 1 102.406 102.222 99.1814
49 25 1 102.823 97.3522 97.0116
50 25 1 102.502 97.7217 101.891
51 26 1 98.5087 101.866 99.4944
52 26 1 99.1381 101.432 98.5909
53 27 1 102.882 101.272 99.04
54 27 1 102.161 100.318 99.2562
55 28 1 98.1652 99.2299 100.794
56 28 1 97.0491 99.4873 100.93
57 29 1 102.955 98.2576 99.5715
58 29 1 97.1909 97.3044 100.252
59 30 1 102.548 100.403 101.11
60 30 1 102.007 99.3344 101.149
61 31 1 98.0663 98.2938 101.33
62 31 1 97.236 97.5318 101.261
63 32 1 102.282 99.1217 99.3637
64 32 1 101.674 98.6842 98.4129
65 33 1 98.1779 102.737 100.034
66 33 1 98.6194 97.6444 100.697
67 34 1 98.5308 99.6492 102.535
68 34 1 99.5546 99.9373 97.2314
69 35 1 100.735 102.392 100.775
70 35 1 99.6674 97.0706 100.738
71 36 1 100.386 99.6788 100.063
72 36 1 101.421 99.0588 100.11
73 37 1 97.9266 97.2138 102.857
74 37 1 97.2927 97.4523 97.9303
75 38 1 99.1195 97.2558 99.8093
76 38 1 99.3162 97.2197 98.6236
77 39 1 99.9531 100.765 98.4847
78 39 1 99.1431 99.9171 98.2164
79 40 1 98.8591 102.518 97.098
80 40 1 97.7274 102.331 97.5293
81 41 1 98.5711 98.5997 100.051
82 41 1 97.4662 98.388 100.465
83 42 1 101.297 101.487 98.1272
84 42 1 102.261 100.776 98.2704
85 43 1 100.672 101.813 99.2037
86 43 1 100.202 102.654 99.9063
87 44 1 98.0522 100.975 101.174
88 44 1 98.9075 101.576 101.561
89 45 1 100.587 97.5452 100.554
90 45 1 99.5746 98.0703 100.316
91 46 1 97.1628 97.3148 99.1068
92 46 1 98.3586 102.879 98.995
93 47 1 98.2395 101.947 98.4268
94 47 1 97.8857 101.03 99.1001
95 48 1 98.3564 98.9272 98.1676
96 48 1 97.8087 98.741 99.2291
97 49 1 98.6135 100.162 100.792
98 49 1 99.7541 100.043 101.144
99 50 1 102.288 98.9942 97.5868
100 50 1 101.895 99.5928 102.611
101 51 1 97.1005 102.455 98.3968
102 51 1 97.4033 101.371 98.0884
103 52 1 101.301 102.215 101.828
104 52 1 101.048 101.172 102.438
105 53 1 100.482 98.5796 100.27
106 53 1 101.504 97.9635 100.235
107 54 1 101.819 102.737 97.5783
108 54 1 101.869 101.71 96.9469
109 55 1 101.492 97.4367 101.541
110 55 1 100.387 102.914 101.617
111 56 1 101.045 97.8988 97.4587
112 56 1 100.82 98.1364 102.208
113 57 1 102.744 102.301 97.253
114 57 1 102.687 101.185 97.4032
115 58 1 99.9645 102.432 97.0742
116 58 1 99.2376 102.261 98.0182
117 59 1 97.874 98.9662 102.984
118 59 1 98.6487 98.5014 102.214
119 60 1 99.7382 98.599 102.258
120 60 1 100.012 97.4829 102.546
121 61 1 97.3807 101.653 102.706
122 61 1 97.18 100.815 101.879
123 62 1 101.233 101.266 100.042
124 62 1 101.318 100.111 99.8476
125 63 1 98.3262 99.7647 99.8055
126 63 1 98.9154 100.493 99.0661
127 64 1 97.2327 100.331 98.2567
128 64 1 98.1402 99.8551 97.5929
129 65 1 100.866 99.2396 101.969
130 65 1 101.668 100.092 101.751
131 66 1 99.786 102.07 101.21
132 66 1 99.2684 102.154 100.166
133 67 1 99.8626 99.7436 102.147
134 67 1 99.0004 100.455 101.83
135 68 1 97.7584 99.0808 101.905
136 68 1 98.9515 99.401 101.623
137 69 1 98.1411 97.2673 101.778
138 69 1 97.5196 102.494 100.962
139 70 1 97.2379 99.2838 97.8338
140 70 1 102.614 100.086 97.4663
141 71 1 100.221 101.617 100.23
142 71 1 100.505 100.71 99.4174
143 72 1 100.338 99.2411 97.0464
144 72 1 101.362 99.6729 97.6277
145 73 1 99.0777 98.0977 98.0935
146 73 1 99.9896 98.3162 97.3477
147 74 1 101.078 98.4561 101.151
148 74 1 101.018 99.6276 100.925
149 75 1 99.1681 97.6159 101.618
150 75 1 98.9338 97.6172 102.762
151 76 1 102.448 102.62 101.288
152 76 1 102.384 97.7737 100.779
153 77 1 97.6153 100.723 97.2499
154 77 1 98.4269 101.597 97.3727
155 78 1 99.8133 101.045 101.464
156 78 1 100.273 101.855 102.176
157 79 1 101.717 101.156 101.647
158 79 1 100.679 100.44 101.666
159 80 1 101.114 97.2435 99.5168
160 80 1 101.964 98.0919 99.2714
161 81 2 99.5266 101.24 99.5374
162 82 2 97.8999 100.06 101.637
163 83 2 97.2618 100.263 99.5077
164 84 2 97.126 102.629 102.116
165 85 2 97.5426 100.299 100.5
166 86 2 98.4582 97.0872 97.9334
167 87 2 97.2953 99.2912 99.9583
168 88 2 101.805 101.775 100.827
169 89 2 98.0499 97.7781 99.6656
170 90 2 102.069 102.711 102.377
171 91 2 99.9193 100.756 102.493
172 92 2 100.879 99.4357 99.0307
173 93 2 98.4546 100.814 98.1058
174 94 2 102.165 97.2111 99.7361
175 95 2 102.283 99.7028 98.3735
176 96 2 97.4753 102.169 99.4944
177 97 2 102.87 98.3846 98.5271
178 98 2 100.399 99.8345 98.0819
179 99 2 100.967 102.91 102.585
180 100 2 101.621 102.861 100.608
181 101 2 100.19 101.909 98.1665
182 102 2 99.7232 98.9622 98.2439
183 103 2 97.5129 98.0285 102.326
184 104 2 99.4857 99.229 100.373
185 105 2 102.293 101.907 98.1178
186 106 2 102.218 97.9375 97.7434
187 107 2 100.958 98.3591 99.2404
188 108 2 100.773 101.409 101.189
189 109 2 99.0825 98.894 97.213
190 110 2 100.4 102.79 98.753
191 111 2 100.102 99.0452 101.224
192 112 2 99.2952 102.608 102.059
193 113 2 100.455 100.599 100.557
194 114 2 98.2203 101.761 100.586
195 115 2 99.2137 101.602 102.531
196 116 2 102.81 99.7139 101.894
197 117 2 98.6906 102.52 101.141
198 118 2 99.5636 102.253 99.1598
199 119 2 102.375 100.575 102.395
200 120 2 101.864 98.5978 101.882
ITEM: TIMESTEP
3000
ITEM: NUMBER OF ATOMS
200
ITEM: BOX BOUNDS pp pp pp
9.6943266072147679e+01 1.0305673392785232e+02
9.7033606212469522e+01 1.0296639378753048e+02
9.7033606212469522e+01 1.0296639378753048e+02
ITEM: ATOMS id mol type x y z
1 1 1 101.543 102.238 99.7174
2 1 1 102.65 102.151 100.282
3 2 1 99.0572 98.057 99.2665
4 2 1 98.0587 97.9262 98.5547
5 3 1 99.323 97.4181 97.5534
6 3 1 100.435 97.0459 97.6836
7 4 1 100.116 97.6776 99.4795
8 4 1 99.915 98.8439 99.3714
9 5 1 100.948 100.066 102.698
10 5 1 101.737 100.723 97.3784
11 6 1 101.42 102.472 98.7116
12 6 1 101.227 97.7332 98.4771
13 7 1 99.8326 99.9127 99.1021
14 7 1 98.9324 99.1148 99.0105
15 8 1 101.804 101.395 99.0806
16 8 1 101.227 100.533 98.5305
17 9 1 102.939 98.8088 102.566
18 9 1 97.4691 99.848 102.711
19 10 1 102.567 101.737 102.085
20 10 1 97.5328 101.742 101.56
21 11 1 103.019 98.5871 101.489
22 11 1 102.444 98.7219 100.432
23 12 1 100.113 97.9486 98.4479
24 12 1 100.796 98.8093 97.999
25 13 1 98.3228 98.0421 97.4702
26 13 1 97.1874 98.2721 97.4237
27 14 1 96.9949 99.3482 98.8599
28 14 1 98.1013 99.7895 98.7554
29 15 1 98.236 102.147 102.182
30 15 1 98.1722 100.972 102.228
31 16 1 99.1437 98.4736 101.148
32 16 1 100.183 97.9896 101.344
33 17 1 98.4394 100.78 100.043
34 17 1 97.2897 101.161 100.117
35 18 1 101.567 100.604 100.815
36 18 1 102.407 99.8992 100.228
37 19 1 99.5192 101.213 97.61
38 19 1 98.7091 100.565 97.1052
39 20 1 102.777 101.444 101.053
40 20 1 102.28 100.992 100.069
41 21 1 101.777 97.8448 102.567
42 21 1 101.441 98.8252 97.0997
43 22 1 99.3494 100.136 100.025
44 22 1 99.281 101.169 100.611
45 23 1 100.657 100.872 97.5914
46 23 1 100.761 101.998 97.2375
47 24 1 102.253 97.2374 98.4956
48 24 1 102.53 102.227 99.1673
49 25 1 102.812 97.542 102.697
50 25 1 102.331 97.7665 101.648
51 26 1 98.5322 101.823 99.4576
52 26 1 99.1362 101.403 98.5875
53 27 1 102.895 101.195 99.1648
54 27 1 102.129 100.28 99.2376
55 28 1 98.0776 99.1633 100.901
56 28 1 96.931 99.4664 100.952
57 29 1 103.016 98.2022 99.5963
58 29 1 97.1883 97.0798 100.02
59 30 1 102.587 100.403 101.127
60 30 1 101.979 99.3679 101.078
61 31 1 98.1413 98.2253 101.456
62 31 1 97.195 97.5441 101.41
63 32 1 102.287 99.1463 99.4592
64 32 1 101.79 98.7026 98.4735
65 33 1 98.2113 102.721 100.044
66 33 1 98.5236 97.6674 100.672
67 34 1 98.5685 99.6824 102.528
68 34 1 99.5576 99.9245 97.194
69 35 1 100.759 102.437 100.791
70 35 1 99.6793 97.0418 100.7
71 36 1 100.341 99.6424 100.093
72 36 1 101.424 99.1051 100.149
73 37 1 97.7863 97.1376 102.879
74 37 1 97.1107 97.3599 97.9189
75 38 1 99.1226 97.1819 99.771
76 38 1 99.2732 97.2235 98.5989
77 39 1 100.03 100.828 98.501
78 39 1 99.1805 100.008 98.1888
79 40 1 98.6936 102.516 97.0632
80 40 1 97.617 102.179 97.5439
81 41 1 98.4674 98.5499 100.085
82 41 1 97.4301 98.2343 100.561
83 42 1 101.357 101.547 98.0753
84 42 1 102.298 100.8 98.3259
85 43 1 100.666 101.751 99.1847
86 43 1 100.249 102.67 99.8576
87 44 1 98.0575 100.931 101.142
88 44 1 98.9045 101.56 101.551
89 45 1 100.622 97.5327 100.528
90 45 1 99.551 97.9817 100.292
91 46 1 97.1352 97.3598 99.0234
92 46 1 98.2367 102.781 99.0414
93 47 1 98.1884 101.847 98.4189
94 47 1 97.8696 101.02 99.1824
95 48 1 98.2002 98.9157 98.0905
96 48 1 97.8197 98.7432 99.2117
97 49 1 98.6458 100.086 100.844
98 49 1 99.7631 100.044 101.079
99 50 1 102.418 98.9684 97.6309
100 50 1 102.008 99.725 102.741
101 51 1 97.2932 102.425 98.492
102 51 1 97.2451 101.324 98.1805
103 52 1 101.289 102.244 101.805
104 52 1 101.134 101.207 102.468
105 53 1 100.494 98.5929 100.281
106 53 1 101.586 98.0043 100.245
107 54 1 101.537 102.833 97.542
108 54 1 101.877 101.839 102.93
109 55 1 101.363 97.4005 101.51
110 55 1 100.274 102.906 101.638
111 56 1 100.999 97.9263 97.3859
112 56 1 100.865 98.1897 102.18
113 57 1 102.765 102.523 97.2663
114 57 1 102.744 101.296 97.354
115 58 1 99.8096 102.484 97.0267
116 58 1 99.1864 102.251 97.9761
117 59 1 97.944 98.942 103.023
118 59 1 98.7974 98.5983 102.265
119 60 1 99.8655 98.7218 102.27
120 60 1 99.8324 97.5566 102.494
121 61 1 97.363 101.642 102.623
122 61 1 97.2425 100.728 101.858
123 62 1 101.198 101.308 100.03
124 62 1 101.273 100.154 99.8414
125 63 1 98.3657 99.6186 99.8817
126 63 1 98.8716 100.438 99.121
127 64 1 97.2365 100.313 98.3322
128 64 1 98.1444 99.8301 97.6345
129 65 1 100.864 99.2563 101.97
130 65 1 101.714 100.075 101.814
131 66 1 99.81 102.049 101.197
132 66 1 99.2433 102.166 100.183
133 67 1 99.9156 99.7964 102.143
134 67 1 98.989 100.446 101.831
135 68 1 97.7967 99.048 101.955
136 68 1 98.9788 99.4018 101.592
137 69 1 98.1375 97.2082 101.801
138 69 1 97.5228 102.585 100.938
139 70 1 97.2308 99.3083 97.8303
140 70 1 102.734 100.239 97.4711
141 71 1 100.211 101.66 100.195
142 71 1 100.485 100.728 99.4226
143 72 1 100.445 99.2279 97.0558
144 72 1 101.369 99.6928 97.7101
145 73 1 99.0668 98.2609 98.1923
146 73 1 99.9741 98.2929 97.3587
147 74 1 101.262 98.5326 101.13
148 74 1 100.96 99.6939 100.953
149 75 1 99.2363 97.5139 101.53
150 75 1 98.748 97.5578 102.584
151 76 1 102.44 102.657 101.282
152 76 1 102.635 97.6597 100.58
153 77 1 97.6075 100.795 97.2937
154 77 1 98.4596 101.582 97.3964
155 78 1 99.8306 101.007 101.47
156 78 1 100.268 101.904 102.152
157 79 1 101.773 101.184 101.632
158 79 1 100.768 100.461 101.686
159 80 1 101.12 97.3163 99.559
160 80 1 102.001 98.101 99.3065
161 81 2 99.5093 101.186 99.5411
162 82 2 97.8812 99.9881 101.558
163 83 2 97.196 100.181 99.4788
164 84 2 97.0909 102.613 102.045
165 85 2 97.5255 100.174 100.502
166 86 2 98.2664 102.912 97.9712
167 87 2 97.2936 99.2688 99.9792
168 88 2 101.785 101.823 100.831
169 89 2 97.9943 97.733 99.6327
170 90 2 102.007 102.78 102.329
171 91 2 100.022 100.84 102.526
172 92 2 100.911 99.4694 99.0334
173 93 2 98.394 100.818 98.1684
174 94 2 102.216 97.1595 99.685
175 95 2 102.35 99.7388 98.3361
176 96 2 97.5036 102.07 99.603
177 97 2 102.922 98.3003 98.5421
178 98 2 100.376 99.9199 98.0307
179 99 2 100.885 97.078 102.542
180 100 2 101.686 102.889 100.561
181 101 2 100.188 101.861 98.1025
182 102 2 99.7959 99.0643 98.2031
183 103 2 97.7154 98.0742 102.391
184 104 2 99.4397 99.1458 100.335
185 105 2 102.345 101.979 98.13
186 106 2 102.151 97.9203 97.684
187 107 2 100.943 98.4271 99.3069
188 108 2 100.792 101.396 101.19
189 109 2 99.0961 98.9459 97.3204
190 110 2 100.4 102.747 98.6887
191 111 2 100.119 99.0476 101.201
192 112 2 99.2226 102.532 102.064
193 113 2 100.441 100.658 100.541
194 114 2 98.2607 101.763 100.574
195 115 2 99.2093 101.554 102.555
196 116 2 102.839 99.6514 101.954
197 117 2 98.6888 102.552 101.144
198 118 2 99.5773 102.215 99.1085
199 119 2 102.457 100.66 102.357
200 120 2 101.925 98.7763 101.97
ITEM: TIMESTEP
4000
ITEM: NUMBER OF ATOMS
200
ITEM: BOX BOUNDS pp pp pp
9.6912545385440907e+01 1.0308745461455909e+02
9.7033606212469522e+01 1.0296639378753048e+02
9.7033606212469522e+01 1.0296639378753048e+02
ITEM: ATOMS id mol type x y z
1 1 1 101.62 102.245 99.777
2 1 1 102.693 102.134 100.276
3 2 1 99.1443 98.1534 99.306
4 2 1 98.1524 97.9375 98.6148
5 3 1 99.1982 97.4042 97.5671
6 3 1 100.344 97.055 97.7147
7 4 1 100.218 97.7623 99.4943
8 4 1 99.9936 98.8996 99.2094
9 5 1 100.931 100.142 102.705
10 5 1 101.729 100.741 97.3
11 6 1 101.46 102.436 98.6901
12 6 1 101.225 97.6264 98.4678
13 7 1 99.8664 99.9488 99.0556
14 7 1 98.9471 99.2045 99.0363
15 8 1 101.831 101.41 99.0356
16 8 1 101.285 100.52 98.4609
17 9 1 102.963 98.8798 102.625
18 9 1 97.4145 99.8821 102.622
19 10 1 102.594 101.706 102.151
20 10 1 97.4218 101.778 101.462
21 11 1 103.077 98.504 101.562
22 11 1 102.537 98.6527 100.48
23 12 1 100.075 97.9178 98.4443
24 12 1 100.723 98.8305 98.0391
25 13 1 98.3324 98.0853 97.4974
26 13 1 97.1972 98.1775 97.432
27 14 1 96.9971 99.3702 98.8224
28 14 1 98.0117 99.8129 98.8608
29 15 1 98.1679 102.112 102.119
30 15 1 98.1477 100.941 102.341
31 16 1 99.0706 98.5132 101.095
32 16 1 100.169 97.9989 101.418
33 17 1 98.4258 100.789 99.9816
34 17 1 97.2593 101.152 100.179
35 18 1 101.755 100.68 100.811
36 18 1 102.368 99.8438 100.164
37 19 1 99.5319 101.434 97.5161
38 19 1 98.8073 100.563 97.2018
39 20 1 102.685 101.338 101.109
40 20 1 102.274 101.141 99.9795
41 21 1 101.734 97.8044 102.608
42 21 1 101.48 98.8027 97.1831
43 22 1 99.4823 100.198 100.055
44 22 1 99.232 101.165 100.634
45 23 1 100.632 100.887 97.5545
46 23 1 100.702 102.005 97.2161
47 24 1 102.317 97.1881 98.5149
48 24 1 102.567 102.208 99.1897
49 25 1 102.809 97.5594 102.659
50 25 1 102.294 97.7889 101.629
51 26 1 98.5576 101.849 99.4109
52 26 1 99.1553 101.345 98.5271
53 27 1 102.907 101.188 99.1151
54 27 1 102.092 100.325 99.2366
55 28 1 98.2364 99.212 100.87
56 28 1 97.1052 99.3729 101.005
57 29 1 102.989 98.1232 99.6043
58 29 1 97.2679 97.1134 99.9301
59 30 1 102.72 100.302 101.077
60 30 1 102.074 99.2823 101.157
61 31 1 98.0556 98.2057 101.367
62 31 1 97.1514 97.4743 101.453
63 32 1 102.337 99.0124 99.3929
64 32 1 101.693 98.7684 98.3917
65 33 1 98.309 102.685 100.068
66 33 1 98.6412 97.6471 100.647
67 34 1 98.5953 99.6438 102.57
68 34 1 99.6204 99.8319 97.172
69 35 1 100.778 102.486 100.794
70 35 1 99.6972 97.0526 100.734
71 36 1 100.424 99.6629 100.007
72 36 1 101.489 99.1176 100.124
73 37 1 97.7287 97.1409 102.914
74 37 1 96.9585 97.2344 97.8454
75 38 1 99.1989 97.2094 99.7786
76 38 1 99.2986 97.2398 98.6415
77 39 1 100.146 100.88 98.5534
78 39 1 99.2484 100.167 98.1133
79 40 1 98.6311 102.479 97.0873
80 40 1 97.539 102.168 97.55
81 41 1 98.5062 98.563 100.09
82 41 1 97.4094 98.2804 100.545
83 42 1 101.343 101.526 98.117
84 42 1 102.359 100.828 98.2622
85 43 1 100.775 101.729 99.2239
86 43 1 100.298 102.661 99.8652
87 44 1 97.9214 100.909 101.115
88 44 1 98.8339 101.532 101.497
89 45 1 100.696 97.5624 100.555
90 45 1 99.628 98.023 100.337
91 46 1 97.1708 97.4126 98.939
92 46 1 98.2129 102.764 98.9901
93 47 1 98.1453 101.835 98.4074
94 47 1 97.7708 101.05 99.2137
95 48 1 98.2493 98.9654 98.1506
96 48 1 97.7409 98.6818 99.2019
97 49 1 98.718 100.191 100.842
98 49 1 99.8329 100.039 101.038
99 50 1 102.412 98.9644 97.6066