LAMMPS (23 Jun 2022)
OMP_NUM_THREADS environment is not set. Defaulting to 1 thread. (src/comm.cpp:98)
  using 1 OpenMP thread(s) per MPI task
Reading data file ...
  orthogonal box = (0 0 0) to (200 200 200)
  1 by 1 by 1 MPI processor grid
  reading atoms ...
  200 atoms
  scanning bonds ...
  1 = max bonds/atom
  reading bonds ...
  80 bonds
Finding 1-2 1-3 1-4 neighbors ...
  special bond factors lj:    0        0        0       
  special bond factors coul:  0        0        0       
     1 = max # of 1-2 neighbors
     0 = max # of 1-3 neighbors
     0 = max # of 1-4 neighbors
     1 = max # of special neighbors
  special bonds CPU = 0.006 seconds
  read_data CPU = 0.054 seconds
Generated 0 of 1 mixed pair_coeff terms from geometric mixing rule
Neighbor list info ...
  update every 1 steps, delay 0 steps, check yes
  max neighbors/atom: 2000, page size: 100000
  master list distance cutoff = 5.5
  ghost atom cutoff = 5.5
  binsize = 2.75, bins = 73 73 73
  1 neighbor lists, perpetual/occasional/extra = 1 0 0
  (1) pair lj/cut, perpetual
      attributes: half, newton on
      pair build: half/bin/newton
      stencil: half/bin/3d
      bin: standard
Setting up Verlet run ...
  Unit style    : lj
  Current step  : 0
  Time step     : 0.002
Per MPI rank memory allocation (min/avg/max) = 7.938 | 7.938 | 7.938 Mbytes
   Step          Temp         Density         PotEng        Enthalpy        Press           Pxx            Pyy            Pzz            Pxy            Pxz            Pyz             Lx             Ly             Lz             Xy             Yz             Xz          Density    
         0   1              2.75e-05       2.2913944e-28  2.4875         2.4875e-05     2.4540872e-05  2.7057051e-05  2.3027077e-05 -8.5634887e-07  1.0219777e-06  4.891355e-07   200            200            200            0              0              0              2.75e-05     
       100   2.5460692      0.00020837979  4.84198       -3.056329      -0.0022160845  -0.0064438455  -9.1411273e-05 -0.00011299676 -0.00011418486  0.00013728392 -2.0090717e-05  101.8253       101.8253       101.8253       0              0              0              0.00020837979
       200   4.2640173      0.00048094567  1.6515352      17.205317      0.0040179672   0.0058416615   0.0033636118   0.0028486284  -4.2624545e-05 -8.577244e-05   7.8886212e-05  77.050516      77.050516      77.050516      0              0              0              0.00048094567
       300   3.4109398      0.00083253532  0.10441452     9.156491       0.0029980724   0.0036044164   0.0028719584   0.0025178425  -3.4032189e-05 -8.0698972e-05  5.233082e-05   64.171177      64.171177      64.171177      0              0              0              0.00083253532
       400   2.655212       0.00125184     1.539643       0.87926486    -0.005261463   -0.0047329713  -0.0058809539  -0.0051704637  -0.00041452185 -0.00027526869 -0.00021210553  56.013316      56.013316      56.013316      0              0              0              0.00125184   
       500   1.8151624      0.0017357831   1.6593522      11.416806      0.011122146    0.010038212    0.012942516    0.01038571    -0.00050995908  0.00065123858  0.00020277756  50.231453      50.231453      50.231453      0              0              0              0.0017357831 
       600   1.8892743      0.0022800012   0.34991124     2.2670282     -0.0018708964  -0.0020832415  -0.0023747803  -0.0011546675   0.00015969705 -0.0004456058  -0.00014462653  45.866528      45.866528      45.866528      0              0              0              0.0022800012 
       700   2.0023685      0.0028743991   0.25770677     2.626462      -0.0016195403  -0.00080700879 -0.0019695274  -0.0020820846  -0.00040569874 -0.00044546722  6.9667131e-05  42.457903      42.457903      42.457903      0              0              0              0.0028743991 
       800   1.0053784      0.003528403    0.97315713     7.7817426      0.017026335    0.016044699    0.019812766    0.015221541   -0.0012586311   0.0014215998   0.00014502807  39.653497      39.653497      39.653497      0              0              0              0.003528403  
       900   0.97908041     0.0042285689   0.6601995     -1.2835873     -0.01308959    -0.013254827   -0.015755959   -0.010257984    0.0010534589  -0.0021439143  -0.00037656909  37.331585      37.331585      37.331585      0              0              0              0.0042285689 
      1000   1.4296831      0.0049740288   0.047173151    3.967368       0.0080777904   0.0077235175   0.010135015    0.0063748389  -0.0010430208   0.00067348035  0.00011983788  35.364821      35.364821      35.364821      0              0              0              0.0049740288 
      1100   0.93176183     0.0057763968   0.33253687     5.3319871      0.01895076     0.021171498    0.020255876    0.015424906   -0.0016076832   0.0016279862  -5.1366378e-05  33.645105      33.645105      33.645105      0              0              0              0.0057763968 
      1200   0.68872769     0.0066111566   0.68116708    -2.209736      -0.023552721   -0.028252806   -0.025195522   -0.017209836    0.0016345606  -0.0025113329   0.00021441489  32.164866      32.164866      32.164866      0              0              0              0.0066111566 
      1300   1.0035952      0.0074954881   0.2457731      4.9127374      0.02159449     0.024519283    0.023631255    0.016632933   -0.0026416572   0.00166142    -0.00079972513  30.84662       30.84662       30.84662       0              0              0              0.0074954881 
      1400   1.0295145      0.0084288216  -0.0017429117   3.3009093      0.01353287     0.017352807    0.013012083    0.01023372    -0.0010033527   0.0010092929  -0.00045802364  29.663241      29.663241      29.663241      0              0              0              0.0084288216 
      1500   0.87990636     0.0093838887   0.40149001    -0.97352316    -0.022933144   -0.034541677   -0.019031048   -0.015226707    0.00086096157 -0.0014187816   0.0021143637   28.62068       28.62068       28.62068       0              0              0              0.0093838887 
      1600   0.86086844     0.010397638    0.4505664      5.4274305      0.034898423    0.043486968    0.03367628     0.027532019   -0.0032832808   0.00097938663 -0.0013110363   27.658545      27.658545      27.658545      0              0              0              0.010397638  
      1700   1.0863639      0.011447063    0.051941678    1.5452998     -0.001332438   -0.0027206692  -0.0012998557   2.3210753e-05  0.00032358506  6.1746355e-05  0.00090340572  26.786103      26.786103      26.786103      0              0              0              0.011447063  
      1800   1.1749083      0.012516432    0.12033078     1.0026597     -0.0099132621  -0.021531513    0.00021358399 -0.0084218576  -0.00045809532  0.00035132516  0.00053360217  26.000441      26.000441      26.000441      0              0              0              0.012516432  
      1900   0.92863289     0.013650863    0.43460323     5.6690091      0.04775843     0.06473809     0.039265919    0.03927128    -0.0054310796   0.00034488347 -7.1141819e-05  25.259274      25.259274      25.259274      0              0              0              0.013650863  
      2000   1.0149057      0.014801436    0.25087096    -0.057567296   -0.024532507   -0.040665813   -0.016684257   -0.016247451    0.0021172107   0.0037314181  -0.0011558963   24.587041      24.587041      24.587041      0              0              0              0.014801436  
      2100   1.2338793      0.01598504    -0.022291481    2.7754019      0.013894321    0.011094692    0.0186564      0.01193187    -0.0033209358   0.0009602204  -0.0012183853   23.964571      23.964571      23.964571      0              0              0              0.01598504   
      2200   0.98477113     0.017229439    0.1868458      4.848439       0.049993915    0.0676516      0.0416678      0.040662346   -0.00077995643 -0.0047037622   0.0022349553   23.373147      23.373147      23.373147      0              0              0              0.017229439  
      2300   0.83747194     0.018473864    0.34539955    -1.0764766     -0.044871387   -0.068914726   -0.039564985   -0.026134449    0.0015362498   0.0054469791  -0.00082535622  22.836085      22.836085      22.836085      0              0              0              0.018473864  
      2400   1.0407594      0.019774003    0.029952226    3.6873405      0.037823261    0.049213832    0.034274803    0.029981147   -0.004197294   -0.0037587162  -0.0018533551   22.324206      22.324206      22.324206      0              0              0              0.019774003  
      2500   1.0027877      0.021120654   -0.040196941    3.3383319      0.036132987    0.041160622    0.032690255    0.034548085   -0.0017499301  -0.0041993889  -9.0260517e-06  21.839286      21.839286      21.839286      0              0              0              0.021120654  
      2600   0.86404137     0.022457021    0.21265308    -0.6898369     -0.044752182   -0.063107749   -0.028873604   -0.042275194   -0.0022572668   0.0082190648   0.0087188786   21.397195      21.397195      21.397195      0              0              0              0.022457021  
      2700   0.93130872     0.023867352    0.13091413     4.2868437      0.060014484    0.074737961    0.050179133    0.055126358   -0.0019457093  -0.0099117001  -0.0033805266   20.967154      20.967154      20.967154      0              0              0              0.023867352  
      2800   1.0470374      0.025300942   -0.071232742    2.0138023      0.012014075    0.0086979037   0.013035818    0.014308504   -0.0045837712   0.0031002291  -0.0018088982   20.563419      20.563419      20.563419      0              0              0              0.025300942  
      2900   1.0456684      0.026731016    0.040135926    0.46040038    -0.027712666   -0.037120752   -0.01296841    -0.033048836    0.0031651034   0.0058908392   0.0015900094   20.189973      20.189973      20.189973      0              0              0              0.026731016  
      3000   0.99056459     0.02824143     0.13380746     4.7252711      0.079924427    0.09749084     0.068023937    0.074258505   -0.0060540681  -0.0093019329  -0.0035932035   19.823424      19.823424      19.823424      0              0              0              0.02824143   
      3100   1.0605123      0.029744956    0.0066348893   1.1403998     -0.012142693   -0.02229612    -0.0071811853  -0.0069507745  -0.0097016821   0.002283085   -0.003185331    19.483626      19.483626      19.483626      0              0              0              0.029744956  
      3200   1.1189337      0.031269274   -0.051759248    1.6451662      0.00076515624  0.0019144104   0.013440181   -0.013059123    0.0020598636   0.0078899029  -0.0083867517   19.161741      19.161741      19.161741      0              0              0              0.031269274  
      3300   0.99283818     0.032874872    0.046096957    4.3182986      0.083394306    0.10521463     0.065973935    0.078994352   -0.0061167034  -0.0069468351   0.0023934003   18.844569      18.844569      18.844569      0              0              0              0.032874872  
      3400   0.94855144     0.03445666     0.045139552    0.32066306    -0.035715566   -0.052969546   -0.032209603   -0.02196755    -0.0062297215   0.006486878   -0.0020383714   18.551677      18.551677      18.551677      0              0              0              0.03445666   
      3500   0.98645727     0.036085316   -0.028928027    2.2925811      0.027858576    0.03688436     0.033956577    0.012734792   -0.0038733591   0.0072310015  -0.0018625575   18.268269      18.268269      18.268269      0              0              0              0.036085316  
      3600   0.95988279     0.037775533   -0.062280794    3.3985122      0.069650111    0.076367879    0.066674463    0.065907992   -0.0043175491   0.0031413885  -2.4411274e-05  17.991638      17.991638      17.991638      0              0              0              0.037775533  
      3700   0.91541138     0.039432039    0.013607272    0.39059919    -0.035462292   -0.037796475   -0.038248328   -0.030342073   -0.0035263643   0.0070881774   0.0091920119   17.736087      17.736087      17.736087      0              0              0              0.039432039  
      3800   0.96165603     0.041157374   -0.024703438    2.9640393      0.058124356    0.065902712    0.053552698    0.054917659   -0.0014082048  -0.0012540141  -0.006964952    17.484706      17.484706      17.484706      0              0              0              0.041157374  
      3900   1.0148628      0.04291406    -0.10436967     2.4932601      0.042248774    0.04120611     0.038363387    0.047176825    0.0046123086  -0.0066682537   0.00093328277  17.242796      17.242796      17.242796      0              0              0              0.04291406   
      4000   1.0375277      0.044654654   -0.083157403    0.77123748    -0.028177704   -0.03487808    -0.014430373   -0.03522466    -0.0013058053   0.0073002977  -0.00078781246  17.015785      17.015785      17.015785      0              0              0              0.044654654  
      4100   1.0422565      0.046469615   -0.066080251    3.3481715      0.078520293    0.088743754    0.076197145    0.070619979   -0.0081239501  -0.0051247014  -0.01014807     16.791308      16.791308      16.791308      0              0              0              0.046469615  
      4200   1.0620904      0.048292504   -0.12245371     1.8635681      0.017598308    0.017632823    0.009491563    0.02567054    -0.0089905792  -0.012785674    0.0031273609   16.57732       16.57732       16.57732       0              0              0              0.048292504  
      4300   1.0890297      0.050122743   -0.19013376     1.2837339     -0.0069036903  -0.0028628923  -0.0032649977  -0.014583181    0.0059125459   0.014565478    0.0062409182   16.373038      16.373038      16.373038      0              0              0              0.050122743  
      4400   1.0401095      0.052022124   -0.19856279     3.3156374      0.092780828    0.095815356    0.095927551    0.086599577   -0.005473902    0.0051236949  -0.0073622084   16.171297      16.171297      16.171297      0              0              0              0.052022124  
      4500   0.96708724     0.053900189   -0.18377545     1.0716771     -0.0092083631  -0.013768048   -0.0054927364  -0.008364305    1.4346085e-05 -0.019341558   -0.015805338    15.981252      15.981252      15.981252      0              0              0              0.053900189  
      4600   0.96155385     0.0558226     -0.23139137     1.2369603      0.0016864822   0.010585355   -0.020259285    0.014733376   -0.0039617188   0.018535606    0.018194219    15.795651      15.795651      15.795651      0              0              0              0.0558226    
      4700   0.96472605     0.057818494   -0.29810453     2.7258237      0.083262551    0.088154442    0.076197058    0.085436152   -0.001325615   -0.017328874   -0.00036781022  15.611764      15.611764      15.611764      0              0              0              0.057818494  
      4800   0.92043921     0.059776181   -0.25190886     0.7698422     -0.01912862    -0.0027550367  -0.018525951   -0.036104874    0.00062925381  0.00763696    -0.0098418616   15.439439      15.439439      15.439439      0              0              0              0.059776181  
      4900   0.95895087     0.061773491   -0.28865085     1.8229222      0.03820628     0.036534247    0.038271941    0.039812652   -0.014343968    0.0059058082  -0.018285358    15.271212      15.271212      15.271212      0              0              0              0.061773491  
      5000   1.0002727      0.06380719    -0.33612789     2.4770673      0.076585344    0.080406731    0.071540697    0.077808605   -0.0056552339  -0.017163698    0.0013146014   15.107213      15.107213      15.107213      0              0              0              0.06380719   
      5100   1.0253546      0.065826466   -0.33502072     1.2294582      0.0020428457  -0.0083031319   0.030663222   -0.016231553   -0.0097388091   0.0097609365   0.0014847526   14.951131      14.951131      14.951131      0              0              0              0.065826466  
      5200   1.017281       0.067906188   -0.30012639     1.7957993      0.035659009    0.06757862     0.026684234    0.012714174   -0.00018901546 -0.004732699    0.010608711    14.796913      14.796913      14.796913      0              0              0              0.067906188  
      5300   1.0278823      0.070013398   -0.31573686     2.204776       0.062782826    0.056817243    0.039022801    0.092508433   -0.0061574194  -0.01656059     0.013406937    14.646949      14.646949      14.646949      0              0              0              0.070013398  
      5400   1.0117147      0.072133476   -0.30580363     1.1766603     -0.0018046652   0.034506939   -0.0010242551  -0.03889668    -0.012131737    0.019552346    0.012039404    14.502024      14.502024      14.502024      0              0              0              0.072133476  
      5500   0.97857595     0.074312558   -0.27359413     1.7364648      0.037124818    0.026705263    0.048123329    0.036545861   -0.032284953   -0.026800631    0.00033283811  14.358866      14.358866      14.358866      0              0              0              0.074312558  
      5600   0.96939508     0.076508412   -0.27878456     1.9673176      0.055592402    0.059875445    0.058248338    0.048653422   -0.00069919616 -0.014277923    0.017052532    14.22016       14.22016       14.22016       0              0              0              0.076508412  
      5700   0.99509073     0.078698652   -0.32465158     0.99439615    -0.011885298   -0.024041543   -0.0082414431  -0.0033729089  -0.012907454    0.01525582    -0.016306963    14.086998      14.086998      14.086998      0              0              0              0.078698652  
      5800   0.99817513     0.080958546   -0.33547774     1.6478319      0.036323395    0.062697733    0.033226943    0.013045509   -0.016688248   -0.0063851966   0.0094330027   13.954684      13.954684      13.954684      0              0              0              0.080958546  
      5900   1.0105773      0.083228099   -0.36278126     1.6036779      0.034666213    0.038417911    0.047610083    0.017970645    0.0020799397  -0.01982414     0.010556257    13.826669      13.826669      13.826669      0              0              0              0.083228099  
      6000   1.0294999      0.085501166   -0.40477824     1.095694      -0.0028025925  -0.0080649465   0.013495395   -0.013838226    0.0034781892   0.013557883   -0.028294043    13.703039      13.703039      13.703039      0              0              0              0.085501166  
      6100   1.0319668      0.087819488   -0.4350654      2.2010459      0.087492224    0.12431027     0.08320761     0.054958793   -0.013105527    0.0063623628   0.024308626    13.581381      13.581381      13.581381      0              0              0              0.087819488  
      6200   1.0170602      0.090125562   -0.46084442     1.504477       0.036653166    0.062679228    0.013813328    0.033466941    0.0042577741  -0.0030747016   0.02630615     13.464541      13.464541      13.464541      0              0              0              0.090125562  
      6300   0.99768414     0.092457272   -0.48373887     0.96549326    -0.003346235   -0.016103341   -0.018043825    0.024108462   -0.0085420948   0.015701741   -0.00029283575  13.350387      13.350387      13.350387      0              0              0              0.092457272  
      6400   0.96736524     0.094853053   -0.49309761     1.5887607      0.055020434    0.058159916    0.085122236    0.021779151    0.010517498   -0.031223195   -0.0072059175   13.237027      13.237027      13.237027      0              0              0              0.094853053  
      6500   0.93929491     0.097259289   -0.48977611     1.2691997      0.031571974    0.079461177    0.015456287   -0.00020154312  0.014907106   -0.026447051    0.014914222    13.126951      13.126951      13.126951      0              0              0              0.097259289  
      6600   0.98129239     0.099680612   -0.56340202     1.2343629      0.030192902    0.03911036     0.019601121    0.031867224   -0.01805003     0.012930478   -0.021910969    13.01979       13.01979       13.01979       0              0              0              0.099680612  
      6700   0.99986647     0.10210824    -0.59023434     1.5113332      0.056555607    0.093436637    0.037548116    0.038682067    0.024116494   -0.0032271273  -0.0093809737   12.91578       12.91578       12.91578       0              0              0              0.10210824   
      6800   1.0137656      0.10454028    -0.60931038     1.1557321      0.023948975    0.062546466   -0.035786568    0.045087026    0.0084860577  -0.0025655196  -0.016409601    12.814834      12.814834      12.814834      0              0              0              0.10454028   
      6900   1.0233465      0.10699612    -0.62508282     1.1672962      0.025779691   -0.0084780518   0.056560888    0.029256238   -0.0087884665  -0.0041655623  -0.016811868    12.71603       12.71603       12.71603       0              0              0              0.10699612   
      7000   1.0170314      0.10949015    -0.63360636     1.3941367      0.050746073    0.083283099    0.048763352    0.020191768    0.024928274    0.0078311976   0.0096722069   12.618736      12.618736      12.618736      0              0              0              0.10949015   
      7100   1.0286265      0.11200512    -0.67689452     1.3285242      0.047876449    0.046432946    0.02057549     0.076620911   -0.0091550572  -0.019818771    0.019813956    12.523574      12.523574      12.523574      0              0              0              0.11200512   
      7200   1.0088273      0.11454199    -0.68364376     0.90063262     0.0081847185   0.026250898   -0.024218534    0.022521791   -0.0087655698   0.0012923245  -0.0058574462   12.430425      12.430425      12.430425      0              0              0              0.11454199   
      7300   0.94620724     0.117145      -0.62961736     1.1776488      0.042071225    0.051521533    0.010414856    0.064277286   -0.0076663161  -0.023564044    0.0010595096   12.337665      12.337665      12.337665      0              0              0              0.117145     
      7400   0.94703275     0.1197833     -0.66551781     0.92926667     0.019746616    0.011161468    0.014442821    0.033635558   -0.017671372   -0.018879869    0.0069143605   12.24641       12.24641       12.24641       0              0              0              0.1197833    
      7500   1.0133442      0.12243273    -0.78381567     1.0881864      0.040022796    0.058652072    0.060631813    0.0007845028   0.06069263     0.043117661    0.012156246    12.157428      12.157428      12.157428      0              0              0              0.12243273   
      7600   1.0030135      0.12509137    -0.79671087     1.2018343      0.057035695    0.1012025      0.02373416     0.046170422    0.026301457    0.037748809    0.058109153    12.070681      12.070681      12.070681      0              0              0              0.12509137   
      7700   0.97466675     0.12773188    -0.78434321     1.3225852      0.075737833    0.030710927    0.11343179     0.083070777   -0.028090737   -0.0054753904  -0.0036479181   11.986925      11.986925      11.986925      0              0              0              0.12773188   
      7800   1.0099048      0.13035205    -0.86631344     0.88770963     0.029239165    0.037528106    0.010017364    0.040172026    0.018160422   -0.030830072   -0.047180338    11.906065      11.906065      11.906065      0              0              0              0.13035205   
      7900   0.9792257      0.1330579     -0.8570439      0.65177652     0.0057246423   0.0067324236   0.024948371   -0.014506868   -0.018964882    0.0089656343  -0.031500008    11.824805      11.824805      11.824805      0              0              0              0.1330579    
      8000   0.99774677     0.13580478    -0.90949131     0.78716614     0.025620237    0.018268319    0.0361116      0.022480792   -0.077629666   -0.02866177     0.015985459    11.744536      11.744536      11.744536      0              0              0              0.13580478   
      8100   1.0009694      0.13860273    -0.94072068     1.0325563      0.060396795    0.044513814    0.031617283    0.10505929    -0.01329503    -0.067768823   -0.013332721    11.66497       11.66497       11.66497       0              0              0              0.13860273   
      8200   0.98393444     0.14135768    -0.93263212     0.68333475     0.018947677    0.038521515    0.023366235   -0.0050447187   0.03777651    -0.004465718   -0.011140998    11.588692      11.588692      11.588692      0              0              0              0.14135768   
      8300   0.96645616     0.14416385    -0.92384031     0.92821718     0.053684215    0.04400157     0.061042101    0.056008973    0.0084796077  -0.014389962    0.0020436312   11.513007      11.513007      11.513007      0              0              0              0.14416385   
      8400   1.0068498      0.1469689     -0.99177002     0.35294553    -0.021111106    0.017298349   -0.051273922   -0.029357746   -0.037410618    0.0045089555   0.0074866249   11.43929       11.43929       11.43929       0              0              0              0.1469689    
      8500   0.9887747      0.14978467    -0.96061029     1.5133555      0.13592544     0.1351718      0.15064256     0.12196197    -0.038552859    0.0019401228   0.01121934     11.367155      11.367155      11.367155      0              0              0              0.14978467   
      8600   1.0174792      0.15256546    -1.005195       0.51164237    -0.00024276228  0.026370706   -0.047517127    0.020418134    0.035763061   -0.026027672    0.046387238    11.297668      11.297668      11.297668      0              0              0              0.15256546   
      8700   0.98000954     0.15543923    -0.93974435     0.3118137     -0.029831074   -0.035838901   -0.046741562   -0.0069127594   0.001789392    0.065295652    0.0037834069   11.227611      11.227611      11.227611      0              0              0              0.15543923   
      8800   0.98884066     0.15836502    -0.9396286      1.2281861      0.09962168     0.15750133     0.11857945     0.022784258   -0.019415466   -0.010597004    0.019253871    11.158037      11.158037      11.158037      0              0              0              0.15836502   
      8900   1.0351512      0.16119857    -0.98591064     0.83860358     0.040966565    0.11060181    -0.019449119    0.031747002    0.017577274   -0.021925515    0.05970587     11.092272      11.092272      11.092272      0              0              0              0.16119857   
      9000   1.0296693      0.16412666    -0.96302628     0.87241217     0.04456143     0.044227822    0.033950179    0.055506291   -0.017946816   -0.034794792   -0.076629944    11.025912      11.025912      11.025912      0              0              0              0.16412666   
      9100   1.0041961      0.16713681    -0.92810388     0.99323018     0.064206582    0.018575629    0.13587367     0.038170451    0.054367839    0.030002783   -0.052126262    10.959318      10.959318      10.959318      0              0              0              0.16713681   
      9200   1.026238       0.17006073    -0.97289345     0.62882341     0.010830793    0.089808615   -0.067378649    0.010062413    0.0057292633   0.0063418703   0.035521173    10.896145      10.896145      10.896145      0              0              0              0.17006073   
      9300   1.101766       0.17302986    -1.126869       0.89960663     0.060102695    0.15623817     0.067706445   -0.043636527   -0.011242625    0.0055472061   0.031111293    10.833461      10.833461      10.833461      0              0              0              0.17302986   
      9400   1.0073534      0.17606455    -1.0576248      0.81520444     0.059118364    0.16528559     0.055096051   -0.043026549   -0.070532695   -0.031265675    0.005052545    10.770857      10.770857      10.770857      0              0              0              0.17606455   
      9500   0.98146512     0.17908931    -1.0952674      0.44852611     0.012854841    0.00045846239  0.060748766   -0.022642707    0.056036655    0.018793006   -0.028000585    10.709874      10.709874      10.709874      0              0              0              0.17908931   
      9600   0.99355447     0.18216033    -1.19656        0.90504349     0.10246078     0.048083364    0.052430423    0.20686855    -0.037350106    0.001374986   -0.015903901    10.649347      10.649347      10.649347      0              0              0              0.18216033   
      9700   0.94495254     0.18517444    -1.1935202      0.43932778     0.037456807    0.099562332    0.086713746   -0.073905658    0.078104756   -0.0025601199   0.10904811     10.59125       10.59125       10.59125       0              0              0              0.18517444   
      9800   0.94213623     0.18828262    -1.2401249     -0.46321215    -0.10770204    -0.069712933   -0.11034708    -0.14304611     0.0746689      0.019011139   -0.017027405    10.532646      10.532646      10.532646      0              0              0              0.18828262   
      9900   0.95667097     0.19155534    -1.2847904      0.60305275     0.080107006   -0.041186285    0.18816378     0.093343523   -0.012549348    0.054344213   -0.013110078    10.472318      10.472318      10.472318      0              0              0              0.19155534   
     10000   0.99629895     0.1946462     -1.3342118      0.64792055     0.087618422    0.12236427     0.086620578    0.053870419   -0.061576793   -0.019314408    0.056893815    10.41659       10.41659       10.41659       0              0              0              0.1946462    
     10100   1.0297191      0.19764223    -1.3661979     -0.033831151   -0.036741503    0.088268563   -0.13502968    -0.063463393    0.0578783      0.02392629    -0.0047788834   10.363688      10.363688      10.363688      0              0              0              0.19764223   
     10200   1.0820857      0.20086036    -1.4475096      0.12474674    -0.0078073613  -0.0085211895  -0.020386295    0.005485401   -0.0039136033  -0.036145264   -0.018967949    10.308041      10.308041      10.308041      0              0              0              0.20086036   
     10300   1.0149469      0.20408441    -1.3597032      0.88826858     0.13602478     0.093132771    0.21486593     0.10007563    -0.010890047    0.043021435   -0.0038869502   10.253472      10.253472      10.253472      0              0              0              0.20408441   
     10400   0.98102287     0.20715085    -1.3300111      0.073201612   -0.011480671   -0.13975249     0.073566395    0.031744079   -0.056867089   -0.05000935    -0.048902083    10.202626      10.202626      10.202626      0              0              0              0.20715085   
     10500   1.0024021      0.21043394    -1.3881879      0.20822832     0.0191937      0.0031580717   0.12743707    -0.073014037   -0.011928964   -0.038758847    0.049572531    10.149289      10.149289      10.149289      0              0              0              0.21043394   
     10600   0.99553619     0.21372452    -1.4053337      0.18165972     0.01965404    -0.043578413    0.072929714    0.029610821   -0.051344327    0.11655031    -0.049240699    10.096932      10.096932      10.096932      0              0              0              0.21372452   
     10700   0.98656135     0.21702971    -1.4176172      0.36533324     0.06126307     0.078803212    0.06592103     0.03906497    -0.075880375   -0.078235139    0.058884189    10.045414      10.045414      10.045414      0              0              0              0.21702971   
     10800   0.96820236     0.2204626     -1.4208321     -0.20506355    -0.045951109   -0.07703764     0.011761537   -0.072577222    0.073507913    0.050446032    0.015628318    9.9930007      9.9930007      9.9930007      0              0              0              0.2204626    
     10900   0.97081301     0.22396486    -1.4351093     -0.25743169    -0.055229896   -0.062908287   -0.12850716     0.025725755    0.028802998    0.059645216   -0.029042293    9.9406382      9.9406382      9.9406382      0              0              0              0.22396486   
     11000   1.0333025      0.22750469    -1.5269643      0.19609252     0.037404429    0.095886149    0.024677109   -0.0083499718  -0.0080373849   0.037426421    0.064444911    9.8888118      9.8888118      9.8888118      0              0              0              0.22750469   
     11100   1.0279684      0.23089047    -1.5126861      0.26491468     0.051080934    0.023069116    0.097060607    0.033113077    0.019875029   -0.091176362    0.019975358    9.840237       9.840237       9.840237       0              0              0              0.23089047   
     11200   1.0284847      0.2342074     -1.5195251      0.29024561     0.058500178    0.16241761    -0.048472801    0.061555727   -0.067207098   -0.02208096    -0.041669682    9.7935623      9.7935623      9.7935623      0              0              0              0.2342074    
     11300   1.040716       0.23756537    -1.5725011      0.65870118     0.1464123      0.18333096     0.18935697     0.066548978   -0.046966314   -0.071737754   -0.0098886867   9.7471993      9.7471993      9.7471993      0              0              0              0.23756537   
     11400   1.0300889      0.24077474    -1.6102178     -0.15936741    -0.018946195   -0.083550508   -0.0090194094   0.035731334   -0.091759105   -0.0078908469   0.0087266017   9.7036976      9.7036976      9.7036976      0              0              0              0.24077474   
     11500   1.0015027      0.24415251    -1.63604        0.097765743    0.053061679    0.15975293    -0.10641958     0.10585169     0.067218453   -0.099061871    0.12940669     9.6587405      9.6587405      9.6587405      0              0              0              0.24415251   
     11600   1.021705       0.24769679    -1.7380812     -0.32596206    -0.025394669    0.03115927    -0.016814576   -0.0905287     -0.068178964   -0.016011541    0.053968953    9.6124501      9.6124501      9.6124501      0              0              0              0.24769679   
     11700   0.90090231     0.25137675    -1.6173259     -0.16101589     0.025529208   -0.039808763    0.016969419    0.099426967    0.0091964771   0.073590945   -0.046985958    9.5653131      9.5653131      9.5653131      0              0              0              0.25137675   
     11800   0.97665095     0.25494405    -1.7622771     -0.072787571    0.05373247     0.025100027    0.13515686     0.00094052347  0.027752264   -0.036450419    0.01243306     9.5204892      9.5204892      9.5204892      0              0              0              0.25494405   
     11900   0.97105477     0.25873354    -1.7864388     -0.82150855    -0.11392955    -0.089536979   -0.17069147    -0.081560214   -0.0037536643   0.029143094    0.011379916    9.4737805      9.4737805      9.4737805      0              0              0              0.25873354   
     12000   0.97269584     0.26250788    -1.7858857     -1.1179348     -0.18704823    -0.33307333    -0.099187392   -0.12888397     0.08191157     0.012361305   -0.084094825    9.4281564      9.4281564      9.4281564      0              0              0              0.26250788   
     12100   1.0010316      0.2664098     -1.8130995      0.21331189     0.12893549     0.19509863     0.091194806    0.10051304     0.038497593    0.0034983628  -0.11662076     9.3819006      9.3819006      9.3819006      0              0              0              0.2664098    
     12200   1.086408       0.27008781    -1.9149689     -0.61986155    -0.080131743   -0.069152024   -0.14311228    -0.028130923   -0.01559037    -0.035140849    0.14503315     9.3391188      9.3391188      9.3391188      0              0              0              0.27008781   
     12300   1.0841358      0.27360019    -1.9068724      0.76838702     0.26295134     0.28354341     0.25454502     0.25076557    -0.045952652    0.090193281   -0.016060505    9.2989825      9.2989825      9.2989825      0              0              0              0.27360019   
     12400   1.1159444      0.27690533    -2.0107874     -0.17276635     0.043417262    0.031513346    0.10712032    -0.0083818794  -0.007183494   -0.12121595     0.02130916     9.2618367      9.2618367      9.2618367      0              0              0              0.27690533   
     12500   1.0191068      0.28042749    -1.9573062     -1.1165702     -0.17342681    -0.24937378    -0.11724257    -0.15366408    -0.066678174    0.12151161    -0.0023912723   9.2228971      9.2228971      9.2228971      0              0              0              0.28042749   
     12600   0.91781047     0.28421887    -1.8809457     -0.10959088     0.10374575     0.11964836     0.13369414     0.057894752    0.08355026     0.073303523   -0.11867339     9.1817033      9.1817033      9.1817033      0              0              0              0.28421887   
     12700   0.9306059      0.2880553     -1.9464385     -0.98112777    -0.11093234    -0.075446598   -0.21392235    -0.043428081   -0.074391936   -0.044726786   -0.010367586    9.1407593      9.1407593      9.1407593      0              0              0              0.2880553    
     12800   0.87058405     0.29212968    -1.8627565     -0.93961292    -0.099909186   -0.19112384    -0.18905557     0.080451849   -0.050986719    0.063500293   -0.071751456    9.0980642      9.0980642      9.0980642      0              0              0              0.29212968   
     12900   0.98240723     0.29620554    -1.9936479     -0.96828854    -0.11872012    -0.17675633    -0.11182552    -0.067578498    0.05125348     0.10782468     0.065960541    9.0561408      9.0561408      9.0561408      0              0              0              0.29620554   
     13000   1.006264       0.30038541    -1.9696886     -0.15266293     0.086067706    0.0010325919   0.079727828    0.1774427      0.01744545     0.021070991    0.097757859    9.013939       9.013939       9.013939       0              0              0              0.30038541   
     13100   1.0492992      0.30432351    -1.9838952     -0.53144758    -0.031437024    0.12665308    -0.14561055    -0.075353609   -0.133917      -0.081415511   -0.013413089    8.9748884      8.9748884      8.9748884      0              0              0              0.30432351   
     13200   1.065241       0.30817906    -1.9684734     -0.19888571     0.050349591   -0.055688402    0.11234436     0.094392815    0.036769183   -0.16497153    -0.16806484     8.9373037      8.9373037      8.9373037      0              0              0              0.30817906   
     13300   1.0509505      0.31200086    -1.9366954     -0.3775114     -0.002654718   -0.011367017   -0.056381203    0.059784066    0.037318619   -0.040974601    0.061121346    8.9006617      8.9006617      8.9006617      0              0              0              0.31200086   
     13400   1.048823       0.31578343    -1.9589133     -0.16811697     0.064714955   -0.14629203     0.20765517     0.13278173     0.017919356   -0.017291662   -0.034294567    8.8649804      8.8649804      8.8649804      0              0              0              0.31578343   
     13500   1.043343       0.31953218    -2.0166922     -0.50345697    -0.012767985   -0.092868944    0.14054957    -0.085984579   -0.029295775    0.15270403    -0.055784892    8.830176       8.830176       8.830176       0              0              0              0.31953218   
     13600   0.97818375     0.3234182     -2.0003567     -1.0061713     -0.13693934    -0.039387287   -0.19002619    -0.18140454     0.060455881    0.014593531    0.037652094    8.7946672      8.7946672      8.7946672      0              0              0              0.3234182    
     13700   0.9883014      0.32762513    -2.083811      -0.86894434    -0.077490237   -0.15943441    -0.084278568    0.01124227     0.081662203   -0.073807556    0.009704912    8.7568617      8.7568617      8.7568617      0              0              0              0.32762513   
     13800   1.0137691      0.331786      -2.1602469     -0.38238325     0.079873955    0.026121123    0.17771072     0.035790024    0.020294435   -0.1670378      0.13886916     8.7201015      8.7201015      8.7201015      0              0              0              0.331786     
     13900   1.0112176      0.33568935    -2.1936698     -0.89001069    -0.062738226   -0.073934603    0.11908171    -0.23336178     0.012024855    0.093408403   -0.14037503     8.686171       8.686171       8.686171       0              0              0              0.33568935   
     14000   1.0507533      0.33962143    -2.296149      -1.2183562     -0.15142685    -0.10906347    -0.15090016    -0.19431692     0.064402474    0.022127674    0.0068334192   8.6525184      8.6525184      8.6525184      0              0              0              0.33962143   
     14100   1.05477        0.34391537    -2.3584148     -0.65514649     0.040339415    0.2000982     -0.069777681   -0.0093022761  -0.079943205    0.011204217    0.11917485     8.6163573      8.6163573      8.6163573      0              0              0              0.34391537   
     14200   1.0003664      0.34777141    -2.3254706     -0.60693462     0.071289672    0.076812076    0.071255047    0.065801892    0.036023828   -0.035639711   -0.03114969     8.5843932      8.5843932      8.5843932      0              0              0              0.34777141   
     14300   0.94773506     0.35144614    -2.2960132     -0.31002652     0.18258974     0.18268154     0.23892144     0.12616624    -0.1440415      0.16280453     0.14575906     8.5543688      8.5543688      8.5543688      0              0              0              0.35144614   
     14400   0.93737981     0.35522856    -2.3205713     -1.3473467     -0.13751051    -0.33042486    -0.15305643     0.070949765   -0.016969036   -0.037671282   -0.062336494    8.5238985      8.5238985      8.5238985      0              0              0              0.35522856   
     14500   0.90817737     0.35967847    -2.2944774     -1.0923201     -0.050125262    0.0596341      0.010729654   -0.22073954     0.022585377   -0.002811424    0.15335647     8.4886002      8.4886002      8.4886002      0              0              0              0.35967847   
     14600   0.96566896     0.36431845    -2.3633112     -1.0633693     -0.046804653    0.097680044   -0.24053568     0.0024416763   0.065011953   -0.033780602    0.0027126773   8.452409       8.452409       8.452409       0              0              0              0.36431845   
     14700   1.0238488      0.36872292    -2.3577346     -0.6174711      0.071119671    0.14831084     0.07187178    -0.0068236031  -0.071498256    0.071684167    0.10257602     8.4186189      8.4186189      8.4186189      0              0              0              0.36872292   
     14800   1.1559874      0.37291543    -2.420394      -0.54411086     0.051181625    0.010363525    0.069990068    0.073191282   -0.20371598     0.14215644     0.0027067056   8.3869511      8.3869511      8.3869511      0              0              0              0.37291543   
     14900   1.1273042      0.37678131    -2.3243068     -0.53144375     0.037802001   -0.079482305    0.099949658    0.092938651    0.054837004    0.15005436     0.066223488    8.3581683      8.3581683      8.3581683      0              0              0              0.37678131   
     15000   1.1444707      0.38071627    -2.3797654     -0.37385418     0.10306637     0.18253513     0.099419331    0.02724463     0.020079172   -0.036348716    0.050318517    8.3292727      8.3292727      8.3292727      0              0              0              0.38071627   
     15100   1.0806025      0.38481614    -2.35905       -0.55701839     0.066199712    0.015914246   -0.025204557    0.20788945    -0.030093729    0.0077133667  -0.050625206    8.2995867      8.2995867      8.2995867      0              0              0              0.38481614   
     15200   1.0248118      0.38904931    -2.3641057     -1.1827396     -0.1231396     -0.10051633     0.057503365   -0.32640583     0.067657842   -0.047259139    0.069127563    8.2693748      8.2693748      8.2693748      0              0              0              0.38904931   
     15300   1.0552344      0.3934131     -2.4678655     -1.8127469     -0.32897155    -0.42507262    -0.23598119    -0.32586083     0.080646885    0.035336341   -0.016198773    8.2386861      8.2386861      8.2386861      0              0              0              0.3934131    
     15400   0.98288059     0.39802397    -2.4084373     -0.27287358     0.24193144     0.31639799     0.13868824     0.27070809     0.17893684     0.025117434    0.043358668    8.206749       8.206749       8.206749       0              0              0              0.39802397   
     15500   1.0028288      0.40226461    -2.4753737     -0.95544706     0.0084858386  -0.030318158    0.017203852    0.038571822   -0.020958705   -0.13416852     0.074383552    8.1778088      8.1778088      8.1778088      0              0              0              0.40226461   
     15600   0.98871633     0.40647689    -2.4743181     -1.7610734     -0.28173079    -0.3595767     -0.064322415   -0.42129324    -0.059608364    0.026556503   -0.14311972     8.149462       8.149462       8.149462       0              0              0              0.40647689   
     15700   0.97079197     0.41117768    -2.4662931     -0.84893829     0.062965431    0.28335597    -0.053844824   -0.040614852   -0.0065810013  -0.0018411211   0.078102617    8.1182867      8.1182867      8.1182867      0              0              0              0.41117768   
     15800   0.96571434     0.41575526    -2.4596376     -0.92523818     0.035176946   -0.04528702    -0.10983805     0.26065591     0.010748116   -0.074873502    0.1379445      8.0883818      8.0883818      8.0883818      0              0              0              0.41575526   
     15900   1.0271808      0.42009485    -2.5266709     -1.5639545     -0.21781952    -0.20643167    -0.20419336    -0.24283354     0.021943076    0.16100602    -0.040921039    8.0604343      8.0604343      8.0604343      0              0              0              0.42009485   
     16000   1.0828179      0.42472456    -2.5748742     -0.95061877     0.0031467038   0.10888004    -0.23845406     0.13901413    -0.07636688    -0.04430174     0.026635206    8.0310396      8.0310396      8.0310396      0              0              0              0.42472456   
     16100   1.0618883      0.42906777    -2.4984313     -0.59584265     0.12393051     0.29627994    -0.11597444     0.19148604     0.030632482   -0.0091616833  -0.10895984     8.0038498      8.0038498      8.0038498      0              0              0              0.42906777   
     16200   1.0371332      0.43334692    -2.4118028     -0.90491198    -0.016164017   -0.017431764   -0.047374149    0.016313863   -0.14896235     0.15597582    -0.18352285     7.9774175      7.9774175      7.9774175      0              0              0              0.43334692   
     16300   1.0666454      0.43781475    -2.4085075     -1.2332428     -0.1658536      0.033059505   -0.31319149    -0.21742881    -0.099633911   -0.068655336    0.061853536    7.9501886      7.9501886      7.9501886      0              0              0              0.43781475   
     16400   1.1474075      0.44277537    -2.512914      -0.93945415    -0.055969184   -0.057951369   -0.070332934   -0.039623249   -0.059476941   -0.044879326    0.11997648     7.9203871      7.9203871      7.9203871      0              0              0              0.44277537   
     16500   1.1205175      0.44761843    -2.5129981     -1.3108517     -0.19134708    -0.21480958    -0.23610232    -0.12312934     0.036660035   -0.026372931    0.11897598     7.8917183      7.8917183      7.8917183      0              0              0              0.44761843   
     16600   1.0346097      0.45263844    -2.5090082     -1.1056315     -0.057928796    0.032898939   -0.074311855   -0.13237347    -0.060945483   -0.03212461    -0.020296414    7.8624352      7.8624352      7.8624352      0              0              0              0.45263844   
     16700   1.0897143      0.45768249    -2.7210385     -1.0650206      0.012323832    0.29222051    -0.43335455     0.17810554     0.089351057    0.25611554     0.061857493    7.8334449      7.8334449      7.8334449      0              0              0              0.45768249   
     16800   1.0216687      0.46226274    -2.7002517     -0.64565309     0.22262489     0.22054341     0.37497921     0.072352049   -0.44614223    -0.085503997   -0.22069423     7.8074869      7.8074869      7.8074869      0              0              0              0.46226274   
     16900   0.99621936     0.46606368    -2.707331      -0.92864073     0.1236479      0.10233522     0.082896073    0.1857124      0.0035086513   0.062643555   -0.15739397     7.7862045      7.7862045      7.7862045      0              0              0              0.46606368   
     17000   1.0236881      0.47017753    -2.7839809     -1.1682854      0.037546187    0.072874306    0.043175644   -0.0034113885   0.19933851     0.1319277      0.11474147     7.7634293      7.7634293      7.7634293      0              0              0              0.47017753   
     17100   0.94713516     0.4746204     -2.6948972     -1.5958471     -0.1357195     -0.35619589     0.076751902   -0.12771452     0.14020899     0.046012552   -0.12115424     7.7391291      7.7391291      7.7391291      0              0              0              0.4746204    
     17200   0.968911       0.47975557    -2.7455034     -1.1086892      0.083178498    0.027452132   -0.12476573     0.3468491      0.052470734    0.050022635   -0.075626845    7.7114175      7.7114175      7.7114175      0              0              0              0.47975557   
     17300   0.98982054     0.48470942    -2.7789379     -1.7449027     -0.19532555    -0.25263057    -0.2565298     -0.076816262    0.071242544   -0.018249228   -0.073460709    7.6850567      7.6850567      7.6850567      0              0              0              0.48470942   
     17400   0.98691014     0.48968939    -2.7696886     -1.3673702     -0.03144919    -0.27961888     0.29293577    -0.10766446     0.30417309     0.20419056    -0.057892917    7.6589164      7.6589164      7.6589164      0              0              0              0.48968939   
     17500   1.0288865      0.4947633     -2.8113103     -1.9488257     -0.30276297    -0.50457749    -0.21801827    -0.18569315     0.039046191    0.090252801    0.059041064    7.6326451      7.6326451      7.6326451      0              0              0              0.4947633    
     17600   1.0058317      0.50003968    -2.7355263     -1.1466533      0.039852818   -0.18445818    -0.077153256    0.38116989     0.047143346    0.26667952     0.16825682     7.6057037      7.6057037      7.6057037      0              0              0              0.50003968   
     17700   1.0673963      0.50503742    -2.784639      -1.6206708     -0.19702003    -0.28023214     0.010196437   -0.3210244      0.13360339     0.11181293     0.10686132     7.5805324      7.5805324      7.5805324      0              0              0              0.50503742   
     17800   1.0471256      0.5104767     -2.7216422     -1.1577777      0.00047778516 -0.065227808    0.07888331    -0.012222146   -0.12381628    -0.13527952    -0.11622922     7.5535119      7.5535119      7.5535119      0              0              0              0.5104767    
     17900   0.99154037     0.51546596    -2.5979276     -1.258917      -0.066009335   -0.026923532    0.059698773   -0.23080325     0.1204469     -0.12636562    -0.092204475    7.5290624      7.5290624      7.5290624      0              0              0              0.51546596   
     18000   1.0914275      0.52034298    -2.7101403     -1.4684567     -0.18319481    -0.096112747   -0.28328223    -0.17018946    -0.058686178   -0.1266023      0.078835143    7.505466       7.505466       7.505466       0              0              0              0.52034298   
     18100   1.0714885      0.52591523    -2.6667895     -1.520936      -0.21674549    -0.41331856    -0.16219946    -0.074718432   -0.1499527     -0.0057988214  -0.25010072     7.4788641      7.4788641      7.4788641      0              0              0              0.52591523   
     18200   1.0729309      0.53171131    -2.6954206     -1.7838098     -0.33340165    -0.51816876    -0.26339736    -0.21863883     0.14756814     0.33734418    -0.068165368    7.4515896      7.4515896      7.4515896      0              0              0              0.53171131   
     18300   1.0571771      0.53734039    -2.759313      -1.539222      -0.17475573    -0.010499035   -0.066603863   -0.4471643     -0.038321708   -0.17556749     0.004208172    7.4254777      7.4254777      7.4254777      0              0              0              0.53734039   
     18400   1.0396842      0.54298836    -2.8564334     -1.1636198      0.069643198   -0.13973607     0.087787101    0.26087856     0.038827265   -0.03750228     0.10018791     7.3996422      7.3996422      7.3996422      0              0              0              0.54298836   
     18500   0.97910239     0.54848512    -2.8555914     -2.1211609     -0.36243887    -0.62670031    -0.051673598   -0.40894272     0.12089974     0.25181384    -0.062149126    7.3748401      7.3748401      7.3748401      0              0              0              0.54848512   
     18600   0.98507717     0.55430012    -2.918417      -1.5575057     -0.055085509   -0.20625235     0.095531488   -0.054535663    0.16650092    -0.059548384    0.020243582    7.3489603      7.3489603      7.3489603      0              0              0              0.55430012   
     18700   1.023573       0.55993424    -3.0096978     -1.165591       0.16106971     0.15430328     0.15251017     0.17639568     0.085306289    0.01017913    -0.030241817    7.3242285      7.3242285      7.3242285      0              0              0              0.55993424   
     18800   1.0129471      0.56501093    -3.0219542     -1.9368586     -0.21918729    -0.58058163     0.017120129   -0.094100378   -0.043292483   -0.15529254    -0.10602648     7.3022261      7.3022261      7.3022261      0              0              0              0.56501093   
     18900   0.97095007     0.5705507     -2.991013      -2.2157924     -0.34955172    -0.64565253    -0.19622087    -0.20678177     0.079390158    0.17047223    -0.10855779     7.2785155      7.2785155      7.2785155      0              0              0              0.5705507    
     19000   0.96721194     0.57655491    -3.0015248     -2.4603046     -0.47295517    -0.27952039    -0.55843742    -0.58090771    -0.1646766     -0.15789502     0.098438879    7.2531613      7.2531613      7.2531613      0              0              0              0.57655491   
     19100   0.9891425      0.58281695    -3.0416703     -1.8300747     -0.14024674    -0.47790907    -0.053304131    0.11047299     0.21525533    -0.0041671882  -0.033187976    7.2270906      7.2270906      7.2270906      0              0              0              0.58281695   
     19200   1.0576444      0.58937697    -3.1503355     -2.2660998     -0.37200327    -0.79553141    -0.167177      -0.1533014     -0.26709137    -0.047258135   -0.046538122    7.200177       7.200177       7.200177       0              0              0              0.58937697   
     19300   1.0035436      0.59615627    -3.0759734     -2.1503638     -0.31009844    -0.15672199    -0.40184687    -0.37172646     0.10523589     0.0024620327  -0.00054958027  7.1727802      7.1727802      7.1727802      0              0              0              0.59615627   
     19400   1.0434057      0.60222671    -3.1723118     -1.3512476      0.14441458     0.18203627     0.028349462    0.22285802     0.22448691     0.0096059256   0.0094813016   7.1485982      7.1485982      7.1485982      0              0              0              0.60222671   
     19500   1.0398578      0.60731271    -3.2411147     -1.8801732     -0.10547707    -0.69996013     0.15312129     0.23040764     0.18837931     0.14814917     0.051777251    7.1285867      7.1285867      7.1285867      0              0              0              0.60731271   
     19600   1.0055419      0.6123968     -3.2906979     -2.240348      -0.25076055    -0.18245329    -0.62622752     0.056399172   -0.006758972    0.31829076     0.093914536    7.1088048      7.1088048      7.1088048      0              0              0              0.6123968    
     19700   0.94917388     0.61805173    -3.283902      -2.157474      -0.16306114    -0.085897206   -0.23363123    -0.16965497    -0.14480904    -0.20016961     0.29886484     7.0870574      7.0870574      7.0870574      0              0              0              0.61805173   
     19800   0.94891122     0.62382957    -3.3278851     -2.0406708     -0.073178461   -0.14455793    -0.10353986     0.028562402    0.23873477    -0.036631515   -0.068286992    7.0651097      7.0651097      7.0651097      0              0              0              0.62382957   
     19900   0.95431153     0.62926231    -3.3460515     -2.0040696     -0.047096286   -0.14398435     0.099461766   -0.096766275   -0.079375782    0.11141502    -0.27482338     7.0447187      7.0447187      7.0447187      0              0              0              0.62926231   
     20000   1.0158138      0.63443299    -3.4320689     -3.3652852     -0.83590486    -1.2322087     -0.75069135    -0.52481457     0.16586032    -0.071544196    0.4032467      7.0255281      7.0255281      7.0255281      0              0              0              0.63443299   
     20100   0.98955789     0.64074632    -3.3813154     -2.4119481     -0.29564494    -0.28366335    -0.20050336    -0.4027681      0.040758635   -0.040825138    0.14943658     7.0023775      7.0023775      7.0023775      0              0              0              0.64074632   
     20200   1.0537411      0.64693464    -3.4470378     -1.8702736      0.002385229   -0.12808706     0.36787143    -0.23262869    -0.31629221    -0.046600188    0.040656317    6.9799786      6.9799786      6.9799786      0              0              0              0.64693464   
     20300   1.0538379      0.65232272    -3.4004581     -2.5121852     -0.40597015    -0.05072561    -0.76845549    -0.39872936     0.052216528    0.023580421    0.11482161     6.9607076      6.9607076      6.9607076      0              0              0              0.65232272   
     20400   1.0999767      0.65803044    -3.4108699     -1.8724768     -0.061808307   -0.24495047     0.16570582    -0.10618027    -0.12891888     0.20730505     0.1098405      6.9405236      6.9405236      6.9405236      0              0              0              0.65803044   
     20500   1.1387898      0.66356501    -3.4212195     -1.4160662      0.18429587    -0.048604893    0.68039933    -0.078906817    0.079798369    0.079989647   -0.18511317     6.9211735      6.9211735      6.9211735      0              0              0              0.66356501   
     20600   1.1894805      0.66857982    -3.50332       -1.4932933      0.14266705     0.22449639    -0.093203319    0.29670809    -0.14218327    -0.12553482     0.040584137    6.9038255      6.9038255      6.9038255      0              0              0              0.66857982   
     20700   1.0771829      0.67320193    -3.4554986     -2.2177556     -0.22641161    -0.71346812     0.17045101    -0.13621772     0.10964677     0.21223234     0.18047792     6.887989       6.887989       6.887989       0              0              0              0.67320193   
     20800   1.0598669      0.67844805    -3.5599886     -2.0513065     -0.045128622    0.046948658    0.37771628    -0.56005081    -0.19045542     0.30237192     0.19263895     6.8701892      6.8701892      6.8701892      0              0              0              0.67844805   
     20900   1.014624       0.68413778    -3.5708902     -2.0989495     -0.026361482   -0.06692793     0.15703566    -0.16919217    -0.090703944    0.16486578    -0.15020695     6.8510905      6.8510905      6.8510905      0              0              0              0.68413778   
     21000   0.98665957     0.68998829    -3.5741776     -2.6377249     -0.33629821    -0.25216536    -0.67281717    -0.083912114    0.039534985   -0.22115681    -0.15489714     6.8316717      6.8316717      6.8316717      0              0              0              0.68998829   
     21100   1.0126788      0.69618749    -3.6530769     -2.9267661     -0.49689582    -0.52627754    -0.22533743    -0.7390725      0.39738418     0.069394704   -0.034081479    6.8113337      6.8113337      6.8113337      0              0              0              0.69618749   
     21200   0.89734829     0.70289374    -3.5217267     -1.1220272      0.67759414     1.1211144      0.22108645     0.69058156    -0.11753154    -0.029964166    0.05600174     6.7896023      6.7896023      6.7896023      0              0              0              0.70289374   
     21300   0.99826673     0.70751297    -3.6922905     -2.4653389     -0.16913511    -0.63010026    -0.34878355     0.47147848     0.056559173    0.22280316    -0.11576415     6.774794       6.774794       6.774794       0              0              0              0.70751297   
     21400   1.0151094      0.71304548    -3.7540816     -2.5123327     -0.1771606     -0.68876744    -0.28491851     0.44220414    -0.2160865      0.0069119145  -0.25029655     6.7572266      6.7572266      6.7572266      0              0              0              0.71304548   
     21500   0.97314607     0.71913231    -3.742402      -1.9656862      0.2120102      0.16694295     0.58647675    -0.1173891     -0.13857345    -0.11301704    -0.038964482    6.7381079      6.7381079      6.7381079      0              0              0              0.71913231   
     21600   0.96644092     0.72432367    -3.7850481     -2.4709921     -0.084520032   -0.13207735    -0.31636793     0.19488518     0.15944612     0.40994741    -0.31505533     6.7219715      6.7219715      6.7219715      0              0              0              0.72432367   
     21700   0.92378662     0.72960956    -3.7709648     -2.3134406      0.052248479    0.21900043    -0.17408882     0.11183383    -0.13489451     0.24197133     0.19089074     6.705699       6.705699       6.705699       0              0              0              0.72960956   
     21800   0.93811038     0.73454986    -3.8221226     -2.0531967      0.24627199    -0.1637472      0.72244295     0.18012022    -0.16082163    -0.13943167    -0.036567099    6.6906318      6.6906318      6.6906318      0              0              0              0.73454986   
     21900   0.92693146     0.73911411    -3.820245      -2.5790178     -0.095559388   -0.48494467    -0.12194042     0.32020693     0.63053942     0.21278462     0.00041891193  6.6768312      6.6768312      6.6768312      0              0              0              0.73911411   
     22000   0.98435474     0.74419844    -3.9138147     -1.9267257      0.35040894     0.48698156    -0.033711151    0.59795641     0.017099591   -0.36544479     0.26266664     6.6615912      6.6615912      6.6615912      0              0              0              0.74419844   
     22100   1.027558       0.74856713    -3.9815869     -2.7177963     -0.18363018    -0.36303844    -0.23701477     0.049162665   -0.2413991     -0.2230343      0.28242272     6.6486067      6.6486067      6.6486067      0              0              0              0.74856713   
     22200   0.95124268     0.75326755    -3.8627769     -1.7823732      0.45242205     0.68274413     0.38356338     0.29095864    -0.04055403    -0.1846141     -0.085974478    6.6347486      6.6347486      6.6347486      0              0              0              0.75326755   
     22300   1.035706       0.75763189    -3.9806332     -1.4077356      0.70742597     0.85919262     0.55990528     0.70318        0.21521862     0.42088533     0.60776495     6.6219843      6.6219843      6.6219843      0              0              0              0.75763189   
     22400   1.0599552      0.76090536    -4.0027816     -2.1600982      0.18033479    -0.083195599    0.23337001     0.39082996    -0.1956362     -0.11602861     0.26715641     6.6124745      6.6124745      6.6124745      0              0              0              0.76090536   
     22500   1.0987974      0.76459411    -4.0612216     -2.4301909     -0.0062032497   0.30911031    -0.055690726   -0.27202934    -0.025629193    0.067124038    0.065556676    6.6018235      6.6018235      6.6018235      0              0              0              0.76459411   
     22600   1.0751251      0.76825352    -4.056246      -1.8248687      0.43773206     0.51056476     0.36019662     0.4424348     -0.47399378    -0.17738319    -0.12256        6.5913247      6.5913247      6.5913247      0              0              0              0.76825352   
     22700   1.034702       0.77155733    -4.0546917     -2.1492729      0.2532995     -0.5724339      0.70908015     0.62325226     0.66009139    -0.26773331    -0.38730622     6.5819032      6.5819032      6.5819032      0              0              0              0.77155733   
     22800   0.98176975     0.7753356     -4.0348826     -1.8330302      0.51916542     0.894877       0.60393449     0.058684776    0.11631418     0.34900184     0.11398076     6.5711944      6.5711944      6.5711944      0              0              0              0.7753356    
     22900   0.97350778     0.77836071    -4.0655697     -2.2759924      0.23819032    -0.34559288     0.3177289      0.74243494     0.079200477    0.20730741    -0.33892751     6.5626704      6.5626704      6.5626704      0              0              0              0.77836071   
     23000   1.0089435      0.78160697    -4.1491027     -1.8549992      0.56009624     0.16425185     0.31724568     1.1987912     -0.22985703     0.0047534516   0.212462       6.5535722      6.5535722      6.5535722      0              0              0              0.78160697   
     23100   0.97556183     0.78513882    -4.1268747     -1.6790913      0.70787931     0.32139661     0.6739601      1.1282812      0.4608103     -0.059536961    0.21871915     6.5437306      6.5437306      6.5437306      0              0              0              0.78513882   
     23200   0.94430231     0.78819687    -4.098356      -2.053622       0.4552645     -0.26507685     1.2754237      0.35544664     0.32396937     0.034605184    0.53522692     6.5352568      6.5352568      6.5352568      0              0              0              0.78819687   
     23300   0.98840957     0.79118989    -4.1842434     -1.9004461      0.58159362     1.135224       0.14342639     0.46613051     0.1283276     -0.25817521    -0.22507511     6.5270056      6.5270056      6.5270056      0              0              0              0.79118989   
     23400   0.93429692     0.79380611    -4.133617      -2.0078871      0.52773077     0.51068488     0.43030362     0.6422038      0.29539095     0.028982839   -0.24555475     6.5198271      6.5198271      6.5198271      0              0              0              0.79380611   
     23500   0.97202348     0.7960739     -4.2203719     -1.9910975      0.56342449     0.77780927     0.39888828     0.51357593     0.052515645    0.21283541    -0.33524764     6.5136302      6.5136302      6.5136302      0              0              0              0.7960739    
     23600   0.9854256      0.79865279    -4.2711061     -3.1666614     -0.26595352     0.23479907    -0.18104095    -0.8516187     -0.084640988    0.4782431     -0.30446972     6.5066117      6.5066117      6.5066117      0              0              0              0.79865279   
     23700   0.94357499     0.80307909    -4.2450159     -1.9550834      0.64366559     0.27673809     1.4725695      0.18168919    -0.029398129   -0.29214686     0.25517945     6.4946356      6.4946356      6.4946356      0              0              0              0.80307909   
     23800   0.96991749     0.80720463    -4.3085893     -2.3617214      0.36637257     0.51088212     0.18236192     0.40587366    -0.32866179     0.075499188    0.022626511    6.4835522      6.4835522      6.4835522      0              0              0              0.80720463   
     23900   0.96805574     0.81134857    -4.3145465     -2.6130931      0.18928771     0.2893375      0.37769004    -0.099164398   -0.4508255      0.019914976    0.17400516     6.4724952      6.4724952      6.4724952      0              0              0              0.81134857   
     24000   0.94762372     0.81551189    -4.2780499     -2.3263032      0.39842814     0.12993807     0.47594372     0.58940264     0.25142131     0.022794144   -0.12832674     6.461462       6.461462       6.461462       0              0              0              0.81551189   
     24100   1.0267486      0.81957984    -4.3695597     -1.8978034      0.69987205     0.51550899     0.51321313     1.070894      -0.22668023     0.053594505    0.6077444      6.4507539      6.4507539      6.4507539      0              0              0              0.81957984   
     24200   0.99863405     0.82270588    -4.2858712     -2.2547769      0.40434725    -0.17735733     0.98017616     0.41022291     0.16825092     0.17858017    -0.3283158      6.4425732      6.4425732      6.4425732      0              0              0              0.82270588   
     24300   1.0657897      0.82533189    -4.3417353     -1.7169783      0.77586137     0.82561654     0.49847682     1.0034908     -0.084797668   -0.12211321     0.17425097     6.435733       6.435733       6.435733       0              0              0              0.82533189   
     24400   1.1120343      0.82744299    -4.3827018     -1.8204345      0.67892163     0.43979688     0.65430648     0.94266153     0.012206556    0.2569518      0.41698474     6.4302551      6.4302551      6.4302551      0              0              0              0.82744299   
     24500   1.0222741      0.82895145    -4.2577317     -1.4814066      0.94242818     1.1999435      1.3947111      0.2326299      0.47285553    -0.38612206    -0.051984316    6.4263523      6.4263523      6.4263523      0              0              0              0.82895145   
     24600   1.0560835      0.82976699    -4.357503      -1.5955856      0.89442303     1.2745593      0.65874192     0.74996785    -0.27068997     0.16358053    -0.4225645      6.4242462      6.4242462      6.4242462      0              0              0              0.82976699   
     24700   1.0395216      0.83041104    -4.4306004     -2.1778706      0.52938238     0.41029797     0.73746487     0.4403843     -0.11588216     0.36922332     0.078347546    6.4225849      6.4225849      6.4225849      0              0              0              0.83041104   
     24800   0.94790229     0.83149575    -4.3845099     -1.63669        1.0076789      1.4656485      0.99633504     0.56105316     0.49388362    -0.27293528     0.20030804     6.4197909      6.4197909      6.4197909      0              0              0              0.83149575   
     24900   0.9374026      0.83299446    -4.4126538     -1.8991113      0.84395143     0.95342851     0.99879488     0.57963091     0.24197956     0.32355069    -0.11682608     6.4159384      6.4159384      6.4159384      0              0              0              0.83299446   
     25000   0.94696908     0.83453921    -4.4322431     -1.957181       0.80549028     0.95556735     1.4726354     -0.011731935   -0.080166974    0.51241514     0.10043116     6.4119773      6.4119773      6.4119773      0              0              0              0.83453921   
     25100   0.99315792     0.83590866    -4.4944534     -2.5717545      0.33467554     0.67609275     0.31800137     0.0099325094   0.41039727     0.37591229     0.012032241    6.4084739      6.4084739      6.4084739      0              0              0              0.83590866   
     25200   0.95683576     0.83835915    -4.4140496     -1.512082       1.1233175      1.2634794      1.5070783      0.59939494     0.20316379    -0.033406657    0.072991944    6.4022239      6.4022239      6.4022239      0              0              0              0.83835915   
     25300   1.0370762      0.83961929    -4.4943245     -1.6176476      1.0142912      1.2963592      0.54993844     1.1965759     -0.0041028963   0.63944223     0.53722517     6.3990194      6.3990194      6.3990194      0              0              0              0.83961929   
     25400   1.0563265      0.83988159    -4.4649455     -1.5438569      1.0265806      1.3058077      0.48217735     1.2917568      0.24639503     0.16766983    -0.054421915    6.3983531      6.3983531      6.3983531      0              0              0              0.83988159   
     25500   1.1068436      0.83983396    -4.4937499     -1.9108465      0.71075853     0.75169638     0.45562988     0.92494935    -0.082386033    0.1369141     -0.025907016    6.3984741      6.3984741      6.3984741      0              0              0              0.83983396   
     25600   1.0439321      0.84015417    -4.3765677     -1.5870378      0.94056119     0.70944487     1.7185664      0.39367227     0.71806443     0.46443547     0.088249191    6.3976611      6.3976611      6.3976611      0              0              0              0.84015417   
     25700   0.99738676     0.84051043    -4.3041225     -0.98565806     1.3982003      0.92701231     1.4259773      1.8416114     -0.43866605     0.30180101     0.18745032     6.3967571      6.3967571      6.3967571      0              0              0              0.84051043   
     25800   1.0314216      0.84075557    -4.41252       -1.4276961      1.1047735      1.1865169      1.4253378      0.7024658     -0.17636068     0.1773408     -0.063132404    6.3961353      6.3961353      6.3961353      0              0              0              0.84075557   
     25900   0.95110043     0.84092002    -4.419346      -2.2511143      0.57237166     1.0037029      0.47674582     0.23666624     0.23303448     0.092176624   -0.069744456    6.3957183      6.3957183      6.3957183      0              0              0              0.84092002   
     26000   0.98079487     0.84173684    -4.5496927     -2.1324942      0.72952726     0.73950394     0.44111569     1.0079622      0.00086832597  0.11878999     0.38400851     6.3936489      6.3936489      6.3936489      0              0              0              0.84173684   
     26100   0.95222428     0.84332573    -4.546472      -2.5833608      0.41546554     0.94004229     0.47514865    -0.16879433     0.09366054    -0.2605402      0.85139136     6.389631       6.389631       6.389631       0              0              0              0.84332573   
     26200   0.93453757     0.84593934    -4.5257781     -2.0683883      0.81717161     1.2849085      0.77974089     0.38686547    -0.10238152    -0.20420545    -0.43272825     6.3830437      6.3830437      6.3830437      0              0              0              0.84593934   
     26300   0.89965845     0.84836203    -4.4596706     -1.6500161      1.1313403      1.0793701      0.98274915     1.3319018      0.52950566     0.18344714    -0.46859178     6.3769619      6.3769619      6.3769619      0              0              0              0.84836203   
     26400   0.97792916     0.84992137    -4.5320154     -1.5500092      1.1763274      1.2920946      0.85119858     1.3856889     -0.14232312     0.14462893    -0.5052181      6.3730596      6.3730596      6.3730596      0              0              0              0.84992137   
     26500   0.98120446     0.85088372    -4.4669642     -2.1104227      0.69006193     0.72962777     0.3366882      1.0038698     -0.68005789    -0.021887924    0.14053277     6.370656       6.370656       6.370656       0              0              0              0.85088372   
     26600   1.0638583      0.85250937    -4.5238695     -1.4640534      1.1408184      1.4558979      1.0351635      0.93139391     0.21553318     0.19793556    -0.38603089     6.366604       6.366604       6.366604       0              0              0              0.85250937   
     26700   1.0813469      0.85387975    -4.5115811     -2.0198319      0.68142622     1.7092334     -0.020336371    0.35538164     0.42173596    -0.093055229   -0.18344565     6.3631963      6.3631963      6.3631963      0              0              0              0.85387975   
     26800   1.028873       0.8551353     -4.4448761     -1.9795863      0.72274233     0.22512121     1.260913       0.6821928     -0.088204117   -0.67422408     0.78175214     6.3600806      6.3600806      6.3600806      0              0              0              0.8551353    
     26900   1.0574794      0.85652286    -4.5175622     -1.5885076      1.051784       0.84075566     1.2162854      1.0983111      0.01437563    -0.42121789    -0.19800529     6.3566443      6.3566443      6.3566443      0              0              0              0.85652286   
     27000   1.0519866      0.85772161    -4.5757081     -1.4056174      1.2475957      0.56771211     1.4962375      1.6788376      0.15249797     0.31268915    -0.77750984     6.3536815      6.3536815      6.3536815      0              0              0              0.85772161   
     27100   0.94751792     0.85812705    -4.4961306     -1.8669899      0.94781707     0.80988584     0.65852004     1.3750453      0.29063032    -0.1274932     -0.21630471     6.3526807      6.3526807      6.3526807      0              0              0              0.85812705   
     27200   0.95180773     0.85878683    -4.5398833     -1.9580277      0.90663102     0.80602199     0.9284541      0.98541696    -0.096787981    0.10007565    -0.0028132713   6.3510535      6.3510535      6.3510535      0              0              0              0.85878683   
     27300   0.97029664     0.85906911    -4.5683711     -1.5034998      1.2626001      0.63354065     0.81072735     2.3435323     -0.2742068      0.39442438    -0.22588351     6.3503577      6.3503577      6.3503577      0              0              0              0.85906911   
     27400   1.0516132      0.85852169    -4.679994      -2.3934185      0.55963348     0.23123371     0.41762769     1.030039       0.3028011      0.43946763    -0.24216502     6.3517072      6.3517072      6.3517072      0              0              0              0.85852169   
     27500   0.95918791     0.85904913    -4.5335823     -1.4539607      1.2870381      1.5177896      0.99697466     1.34635       -0.30642011    -0.17219878    -0.25204159     6.350407       6.350407       6.350407       0              0              0              0.85904913   
     27600   1.0140215      0.85872429    -4.5846154     -2.0836965      0.77089389     0.34458514     0.87015648     1.0979401      0.072294973   -0.10925456    -0.71401314     6.3512076      6.3512076      6.3512076      0              0              0              0.85872429   
[...]
    136000   0.098563955    0.26956931    -3.2649092     -5.9235025     -0.68757331    -1.385182      -0.24145197    -0.43608596    -0.014664667    0.035343777    0.041112904    23.13899       5.9388713      5.9388713      0              0              0              0.26956931   
    137000   0.11797486     0.26688705    -3.3118413     -5.35944       -0.53951853    -1.2021492     -0.10571583    -0.31069055     0.05776945    -0.070662013   -0.021190246    23.371541      5.9388713      5.9388713      0              0              0              0.26688705   
    138000   0.10272168     0.26423148    -3.3083926     -5.7851591     -0.63177234    -1.2773073     -0.23009937    -0.38791036     0.052574068   -0.013049239    0.014513156    23.606429      5.9388713      5.9388713      0              0              0              0.26423148   
    139000   0.10371979     0.26160234    -3.2788802     -5.4871547     -0.56198753    -1.2059875     -0.15950172    -0.32047341     0.037932078    0.023418481    0.017855609    23.843678      5.9388713      5.9388713      0              0              0              0.26160234   
    140000   0.10945942     0.25899935    -3.2073757     -5.7803391     -0.64428011    -1.2896735     -0.26720965    -0.3759572     -0.0073821308  -0.014379285    0.050072805    24.083311      5.9388713      5.9388713      0              0              0              0.25899935   
    141000   0.10258243     0.25642226    -3.185807      -5.7834067     -0.64121975    -1.3178551     -0.31577214    -0.29003197     0.0075379463   0.04203343     0.050968608    24.325352      5.9388713      5.9388713      0              0              0              0.25642226   
    142000   0.10949946     0.25387082    -3.1312726     -5.6470067     -0.61832825    -1.3550362     -0.18527274    -0.3146758      0.032785424    0.079239754    0.061700264    24.569826      5.9388713      5.9388713      0              0              0              0.25387082   
    143000   0.099442644    0.25134476    -3.1328365     -5.8205114     -0.64803376    -1.4423561     -0.24046188    -0.26128332     0.024881964    0.030464191    0.056799262    24.816757      5.9388713      5.9388713      0              0              0              0.25134476   
    144000   0.095118358    0.24884384    -3.0939284     -5.9728663     -0.68339351    -1.528834      -0.20217881    -0.31916773     0.085011743    0.073092482   -0.0051628448   25.066169      5.9388713      5.9388713      0              0              0              0.24884384   
    145000   0.094070486    0.2463678     -3.0292367     -5.981526      -0.69267191    -1.5742806     -0.15822248    -0.3455127      0.11383974     0.075606533    0.055679531    25.318088      5.9388713      5.9388713      0              0              0              0.2463678    
    146000   0.097008129    0.2439164     -2.9860473     -6.0766984     -0.71743257    -1.6925527     -0.16383444    -0.29591052     0.052632312    0.073132015    0.016715798    25.572539      5.9388713      5.9388713      0              0              0              0.2439164    
    147000   0.10315896     0.24148939    -2.9286567     -6.3809155     -0.79169521    -1.8389492     -0.26288609    -0.27325035     0.022263767    0.066128987    0.03201238     25.829548      5.9388713      5.9388713      0              0              0              0.24148939   
    148000   0.091169896    0.23908653    -2.8426788     -6.5314701     -0.83133916    -1.8966441     -0.21047355    -0.38689979    -0.0097343477   0.070473838   -0.00129611     26.089139      5.9388713      5.9388713      0              0              0              0.23908653   
    149000   0.099759962    0.23670758    -2.7487338     -6.1671888     -0.76765277    -1.9303455     -0.11211404    -0.26049877     0.050875617    0.048223512    0.0071436932   26.351339      5.9388713      5.9388713      0              0              0              0.23670758   
    150000   0.10666015     0.2343523     -2.7069531     -6.1135545     -0.75968317    -1.8873928     -0.088203945   -0.30345275     0.13925946     0.11798421     0.032780124    26.616174      5.9388713      5.9388713      0              0              0              0.2343523    
    151000   0.10304611     0.23202046    -2.6410801     -6.3529935     -0.81538523    -1.9615858     -0.1750953     -0.30947454     0.10442694     0.10169873     0.061780421    26.883671      5.9388713      5.9388713      0              0              0              0.23202046   
    152000   0.10139784     0.22971182    -2.6055889     -6.4756408     -0.83978217    -1.9989484     -0.19201489    -0.32838321     0.098922265    0.12853663     0.023743952    27.153857      5.9388713      5.9388713      0              0              0              0.22971182   
    153000   0.10653748     0.22742615    -2.4763001     -6.8863395     -0.94465514    -2.2528799     -0.18757656    -0.39350898     0.12243866     0.096254492    0.054078475    27.426758      5.9388713      5.9388713      0              0              0              0.22742615   
    154000   0.10622249     0.22516322    -2.4132382     -6.9777866     -0.96678647    -2.2725758     -0.18877657    -0.439007       0.079392625    0.18360671     0.010906172    27.702401      5.9388713      5.9388713      0              0              0              0.22516322   
    155000   0.097660208    0.22292281    -2.3832665     -6.5896559     -0.88199353    -2.2489723     -0.16220587    -0.23480243     0.056812663    0.16268253     0.039987514    27.980815      5.9388713      5.9388713      0              0              0              0.22292281   
    156000   0.09702729     0.22070469    -2.2914407     -7.0618495     -0.98619323    -2.3739349     -0.17737475    -0.40727004     0.048724358    0.12977418     0.055968347    28.262027      5.9388713      5.9388713      0              0              0              0.22070469   
    157000   0.10480026     0.21850864    -2.1968183     -7.2686624     -1.0385633     -2.6064623     -0.16461666    -0.3446109      0.0047883206   0.17068182     0.036999842    28.546065      5.9388713      5.9388713      0              0              0              0.21850864   
    158000   0.09779381     0.21633444    -2.0797746     -7.5675757     -1.1079781     -2.7672575     -0.22052106    -0.33615592     0.044345936    0.20664403     0.036304569    28.832958      5.9388713      5.9388713      0              0              0              0.21633444   
    159000   0.12590132     0.21418188    -2.3976209     -6.2862563     -0.79374695    -1.8914257     -0.15454392    -0.33527125    -0.014054044    0.029200079    0.049315043    29.122734      5.9388713      5.9388713      0              0              0              0.21418188   
    160000   0.096221896    0.21205073    -2.4469187     -6.2086509     -0.75284629    -1.8522126     -0.12905082    -0.27727543     0.020226321    0.029345654    0.056711243    29.415422      5.9388713      5.9388713      0              0              0              0.21205073   
    161000   0.11130989     0.20994079    -2.3948909     -6.5175223     -0.81853269    -2.0073727     -0.094952172   -0.35327318     0.012405047   -0.0088097194   0.013315402    29.711052      5.9388713      5.9388713      0              0              0              0.20994079   
    162000   0.097128492    0.20785185    -2.3139332     -6.7604322     -0.86758555    -2.127655      -0.103432      -0.37166968    -0.0069835328   0.0063158997   0.046339023    30.009653      5.9388713      5.9388713      0              0              0              0.20785185   
    163000   0.10144358     0.20578369    -2.2548661     -6.682317      -0.85659433    -2.0952546     -0.11144872    -0.36307966    -0.039058668    0.026691158    0.069411614    30.311255      5.9388713      5.9388713      0              0              0              0.20578369   
    164000   0.10185048     0.2037361     -2.1835036     -6.9822742     -0.91695739    -2.2859808     -0.1046138     -0.36027761     0.030305342    0.014491251    0.031616696    30.615888      5.9388713      5.9388713      0              0              0              0.2037361    
    165000   0.095529652    0.2017089     -2.0504838     -7.1041825     -0.95285022    -2.3895739     -0.14306951    -0.32590722    -0.011153777   -0.013373575    0.069289157    30.923583      5.9388713      5.9388713      0              0              0              0.2017089    
    166000   0.10300258     0.19970186    -1.9742759     -7.1064049     -0.95963285    -2.4728198     -0.10465419    -0.30142456     0.0014053116  -0.032069062   -0.012524752    31.23437       5.9388713      5.9388713      0              0              0              0.19970186   
    167000   0.098699078    0.19771479    -1.8794003     -7.314763      -1.0034333     -2.6283955     -0.14384443    -0.23806006    -0.0024691616  -0.035802542    0.050501735    31.548281      5.9388713      5.9388713      0              0              0              0.19771479   
    168000   0.10187022     0.1957475     -1.7477184     -7.8075258     -1.1054126     -2.8678875     -0.11543919    -0.33291105    -0.0080593715  -0.073394397   -0.021205023    31.865346      5.9388713      5.9388713      0              0              0              0.1957475    
    169000   0.10217672     0.19379978    -1.6464237     -7.9965249     -1.1456386     -2.8551792     -0.16739041    -0.41434605    -0.032967544   -0.012556823    0.008187427    32.185598      5.9388713      5.9388713      0              0              0              0.19379978   
    170000   0.26315573     0.19187144    -2.2878944     -4.7692075     -0.50132048    -1.2925007     -0.0023494962  -0.20911125    -0.061524237   -0.056908963   -0.048948609    32.509069      5.9388713      5.9388713      0              0              0              0.19187144   
    171000   0.11574264     0.18996228    -2.8615917     -3.855613      -0.20149251    -0.35320557    -0.082117192   -0.16915478    -0.00143469    -0.0076748573   0.0076340241   32.83579       5.9388713      5.9388713      0              0              0              0.18996228   
    172000   0.098612064    0.18807213    -3.0465996     -3.3248138     -0.07273138    -0.082114362   -0.01127       -0.12480978    -0.015535731    0.011806253    0.046017428    33.165796      5.9388713      5.9388713      0              0              0              0.18807213   
    173000   0.1005239      0.18620078    -3.1675077     -3.7277657     -0.12023321    -0.13413354    -0.083570801   -0.1429953      0.020428881    0.0026795477   0.031674102    33.499117      5.9388713      5.9388713      0              0              0              0.18620078   
    174000   0.099100327    0.18434805    -3.2568145     -3.8115413     -0.11775384    -0.084083721   -0.1397291     -0.12944871     0.0083080828  -0.016348892   -0.0077428143   33.835789      5.9388713      5.9388713      0              0              0              0.18434805   
    175000   0.09380869     0.18251376    -3.3765932     -3.9028984     -0.11055599    -0.064373706   -0.0810917     -0.18620258     0.0010139849  -0.017446294    0.028963832    34.175844      5.9388713      5.9388713      0              0              0              0.18251376   
    176000   0.10610687     0.18069771    -3.4101727     -3.3410843     -0.01466544     0.031607408   -0.01373527    -0.061868457   -0.023911563    0.02441632    -0.0042439402   34.519317      5.9388713      5.9388713      0              0              0              0.18069771   
    177000   0.10502293     0.17889974    -3.4970741     -3.9192395     -0.094152032   -0.075191733   -0.05645163    -0.15081273     0.0030800549  -0.025141512   -0.0085300955   34.866242      5.9388713      5.9388713      0              0              0              0.17889974   
    178000   0.10115323     0.17711966    -3.5843007     -3.7801692     -0.055847389    0.0062736991  -0.051309311   -0.12250656     0.0062825531  -0.011458594    0.021307011    35.216654      5.9388713      5.9388713      0              0              0              0.17711966   
    179000   0.10028136     0.17535729    -3.6738458     -3.768854      -0.039005544    0.02537511    -0.039397281   -0.10299446    -0.026028635    0.016501449   -0.0040321037   35.570587      5.9388713      5.9388713      0              0              0              0.17535729   
    180000   0.10350013     0.17361246    -3.7326405     -4.2038792     -0.098755921   -0.039890327   -0.095591334   -0.1607861      0.033223035    0.0093765712   0.019935134    35.928077      5.9388713      5.9388713      0              0              0              0.17361246   
    181000   0.093413234    0.17188498    -3.7896814     -4.1253092     -0.074230407    0.020626143   -0.1051721     -0.13814526     0.01520892     0.011201454    0.0021764845   36.289161      5.9388713      5.9388713      0              0              0              0.17188498   
    182000   0.099664889    0.1701747     -3.8819203     -4.0029755     -0.041739994   -0.0019095762  -0.075066934   -0.048243473   -0.0097122678  -0.039843431    0.042236034    36.653873      5.9388713      5.9388713      0              0              0              0.1701747    
    183000   0.10111096     0.16848143    -3.948944      -4.5134179     -0.10957144    -0.068586373   -0.10639281    -0.15373515     0.0010846877  -0.0008680408  -0.017109559    37.02225       5.9388713      5.9388713      0              0              0              0.16848143   
    184000   0.098911587    0.16680501    -3.9837613     -4.2080278     -0.056394042    0.036247726   -0.084744111   -0.12068574    -0.023724734    0.023006616   -0.013014439    37.39433       5.9388713      5.9388713      0              0              0              0.16680501   
    185000   0.10210539     0.16514528    -4.0242984     -4.380685      -0.076384017   -0.035917906   -0.03884916    -0.15438499     0.027841429    0.0076521697  -0.015294374    37.770149      5.9388713      5.9388713      0              0              0              0.16514528   
    186000   0.098185088    0.16350205    -4.0821763     -4.304972      -0.054897596    0.022245071   -0.050074518   -0.13686334    -0.0062730873   0.033271717    0.046277742    38.149746      5.9388713      5.9388713      0              0              0              0.16350205   
    187000   0.10166131     0.16187518    -4.1366574     -4.4590906     -0.069777429   -0.039631274    0.0020167688  -0.17171778    -0.038779039   -0.033802527   -0.005283074    38.533157      5.9388713      5.9388713      0              0              0              0.16187518   
    188000   0.11489834     0.1602645     -4.1939025     -4.9895784     -0.14091062    -0.059995803   -0.14036313    -0.22237293     0.016940099   -0.022427924   -0.0041735796   38.920422      5.9388713      5.9388713      0              0              0              0.1602645    
    189000   0.10680367     0.15866984    -4.3118505     -4.8446266     -0.099843798   -0.025295505   -0.094382877   -0.17985301     0.024838538   -0.011390242   -0.0084197782   39.311578      5.9388713      5.9388713      0              0              0              0.15866984   
    190000   0.10881671     0.15709105    -4.4026361     -5.2809402     -0.14862427    -0.045456579   -0.1519492     -0.24846704    -0.019608982   -0.0053441262   0.022111354    39.706666      5.9388713      5.9388713      0              0              0              0.15709105   
    191000   0.097338575    0.15552796    -4.4876114     -5.022715      -0.096198492   -0.031609948   -0.13376402    -0.12322151     0.0066942563   0.028073738    0.056551926    40.105725      5.9388713      5.9388713      0              0              0              0.15552796   
    192000   0.10095973     0.15398044    -4.5500987     -4.8585276     -0.064267417    0.025346235   -0.12120912    -0.096939368    0.017031312    0.0033786466   0.071108411    40.508794      5.9388713      5.9388713      0              0              0              0.15398044   
    193000   0.10585681     0.1524483     -4.6381836     -4.8833449     -0.055872664    0.039692828   -0.071658255   -0.13565256    -0.010552751    0.019349379    0.0174495      40.915914      5.9388713      5.9388713      0              0              0              0.1524483    
    194000   0.098144394    0.15093142    -4.6883561     -5.2408979     -0.095913116    0.010597494   -0.20260661    -0.095730234    0.015230606    0.0010153749  -0.019124731    41.327126      5.9388713      5.9388713      0              0              0              0.15093142   
    195000   0.097545547    0.14942963    -4.7063188     -5.5762821     -0.13795751    -0.040376668   -0.17405634    -0.19943952     0.041011187   -0.015768598    0.006766918    41.742471      5.9388713      5.9388713      0              0              0              0.14942963   
    196000   0.10015255     0.14794278    -4.7202017     -5.2071688     -0.085597634    0.028904501   -0.16111309    -0.12458432    -0.0041676637  -0.013901075   -0.0076527473   42.161989      5.9388713      5.9388713      0              0              0              0.14794278   
    197000   0.094944767    0.14647072    -4.7293188     -5.1510461     -0.075023955    0.0031814101  -0.10408407    -0.12416921    -0.046512329    0.028717227    0.00065409997  42.585725      5.9388713      5.9388713      0              0              0              0.14647072   
    198000   0.095960412    0.14501331    -4.767374      -4.9787874     -0.046751547    0.053588906   -0.094660846   -0.0991827      0.014656869   -0.0044434094  -0.014501088    43.013718      5.9388713      5.9388713      0              0              0              0.14501331   
    199000   0.095208383    0.14357041    -4.7777087     -4.9741588     -0.044186876    0.022976366   -0.033757946   -0.12177905     0.010952956   -0.030820291   -0.022431523    43.446013      5.9388713      5.9388713      0              0              0              0.14357041   
    200000   0.097136989    0.14214186    -4.8203835     -5.1785652     -0.065018101   -0.0018225591  -0.09747943    -0.095752314   -0.014399271    0.013225589   -0.010925528    43.882653      5.9388713      5.9388713      0              0              0              0.14214186   
Loop time of 42.6225 on 1 procs for 200000 steps with 200 atoms

Performance: 810838.711 tau/day, 4692.354 timesteps/s
49.9% CPU use with 1 MPI tasks x 1 OpenMP threads

MPI task timing breakdown:
Section |  min time  |  avg time  |  max time  |%varavg| %total
---------------------------------------------------------------
Pair    | 30.68      | 30.68      | 30.68      |   0.0 | 71.98
Bond    | 0.93099    | 0.93099    | 0.93099    |   0.0 |  2.18
Neigh   | 0.5342     | 0.5342     | 0.5342     |   0.0 |  1.25
Comm    | 1.5434     | 1.5434     | 1.5434     |   0.0 |  3.62
Output  | 1.3385     | 1.3385     | 1.3385     |   0.0 |  3.14
Modify  | 7.034      | 7.034      | 7.034      |   0.0 | 16.50
Other   |            | 0.5618     |            |       |  1.32

Nlocal:            200 ave         200 max         200 min
Histogram: 1 0 0 0 0 0 0 0 0 0
Nghost:            756 ave         756 max         756 min
Histogram: 1 0 0 0 0 0 0 0 0 0
Neighs:          11714 ave       11714 max       11714 min
Histogram: 1 0 0 0 0 0 0 0 0 0

Total # of neighbors = 11714
Ave neighs/atom = 58.57
Ave special neighs/atom = 7.98
Neighbor list builds = 523
Dangerous builds = 0
System init for write_data ...
Generated 0 of 1 mixed pair_coeff terms from geometric mixing rule
WARNING: Not all mixed pair coeffs generated from mixing. Use write_data with 'pair ij' option to store all pair coeffs. (src/write_data.cpp:309)
Total wall time: 0:00:42
0.76875
