LAMMPS (23 Jun 2022)
OMP_NUM_THREADS environment is not set. Defaulting to 1 thread. (src/comm.cpp:98)
  using 1 OpenMP thread(s) per MPI task
Reading data file ...
  orthogonal box = (96.898639 96.898639 96.898639) to (103.10136 103.10136 103.10136)
  1 by 1 by 1 MPI processor grid
  reading atoms ...
  200 atoms
  scanning bonds ...
  4 = max bonds/atom
  reading bonds ...
  203 bonds
Finding 1-2 1-3 1-4 neighbors ...
  special bond factors lj:    0        0        0       
  special bond factors coul:  0        0        0       
     4 = max # of 1-2 neighbors
     4 = max # of 1-3 neighbors
    10 = max # of 1-4 neighbors
    12 = max # of special neighbors
  special bonds CPU = 0.000 seconds
  read_data CPU = 0.003 seconds
Finding 1-2 1-3 1-4 neighbors ...
  special bond factors lj:    0        1        1       
  special bond factors coul:  0        0        0       
     4 = max # of 1-2 neighbors
     4 = max # of 1-3 neighbors
    10 = max # of 1-4 neighbors
    12 = max # of special neighbors
  special bonds CPU = 0.000 seconds
Generated 0 of 1 mixed pair_coeff terms from geometric mixing rule
Neighbor list info ...
  update every 1 steps, delay 0 steps, check yes
  max neighbors/atom: 2000, page size: 100000
  master list distance cutoff = 5.5
  ghost atom cutoff = 5.5
  binsize = 2.75, bins = 3 3 3
  1 neighbor lists, perpetual/occasional/extra = 1 0 0
  (1) pair lj/cut, perpetual
      attributes: half, newton on
      pair build: half/bin/newton
      stencil: half/bin/3d
      bin: standard
Setting up Verlet run ...
  Unit style    : lj
  Current step  : 0
  Time step     : 0.002
WARNING: Inconsistent image flags (src/domain.cpp:819)
Per MPI rank memory allocation (min/avg/max) = 8.745 | 8.745 | 8.745 Mbytes
   Step          Temp         Density         PotEng        Enthalpy        Press           Pxx            Pyy            Pzz            Pxy            Pxz            Pyz             Lx             Ly             Lz             Xy             Yz             Xz          Density    
         0   1.5            0.92188277    -4.4146228      0.97105324     2.6373608      2.2665755      2.8882525      2.7572545     -0.54907362    -0.70953497     0.27362614     6.2027222      6.2027222      6.2027222      0              0              0              0.92188277   
      1000   1.4614067      0.78687912    -3.0719328      0.59075735     1.0598122      1.8215268      0.41890275     0.93900704     0.25938793    -0.041237432    0.00019333946  6.5389029      6.5389029      6.5389029      0              0              0              0.78687912   
      2000   1.4768359      0.75683646    -2.7446595      0.061502177    0.41418503     1.641495      -0.11201591    -0.28692404     0.021605857   -0.075920326   -0.4446139      6.6243033      6.6243033      6.6243033      0              0              0              0.75683646   
      3000   1.4324626      0.81216328    -3.0242673      0.61444594     1.1080586      1.3618522      1.2374313      0.72489233     0.79872716     0.29353275     0.1881662      6.4703302      6.4703302      6.4703302      0              0              0              0.81216328   
      4000   1.577781       0.80794001    -3.0920161      1.4706659      1.6216412      1.6594656      2.1229467      1.0825113     -0.24811965    -0.4720643     -0.024004762    6.4815845      6.4815845      6.4815845      0              0              0              0.80794001   
      5000   1.2662474      0.80126896    -3.0607981      0.20933807     1.0054192      0.88390353     1.2775823      0.85477159     0.36845238    -0.14909161    -0.033905827    6.4995225      6.4995225      6.4995225      0              0              0              0.80126896   
      6000   1.3718858      0.77048028    -3.0636846      0.32209936     0.9373554      1.1562207      1.0233762      0.63246938     0.53269536    -0.18543632     0.24963204     6.5849687      6.5849687      6.5849687      0              0              0              0.77048028   
      7000   1.395278       0.78418454    -2.9061699      1.1117867      1.3798113      0.90945314     1.6518849      1.5780959      0.16888492     0.10833102     0.18640872     6.5463839      6.5463839      6.5463839      0              0              0              0.78418454   
      8000   1.4145455      0.80645776    -3.0270189      1.1910818      1.5446537      1.512008       1.7827082      1.3392449      0.85878477    -0.082702373   -0.28723084     6.4855531      6.4855531      6.4855531      0              0              0              0.80645776   
      9000   1.3058814      0.80343094    -3.0387314     -1.0598575      0.021799182    0.027631037   -0.60781647     0.64558298     0.084418571   -1.0114395      0.098908232    6.4936874      6.4936874      6.4936874      0              0              0              0.80343094   
     10000   1.2430557      0.80060073    -2.9985213     -0.34801914     0.57879182     0.72098646     0.45631965     0.55906936     0.097660941   -0.048191186   -0.28663148     6.5013303      6.5013303      6.5013303      0              0              0              0.80060073   
     11000   1.3628281      0.78191797    -2.9232222      0.84508254     1.2327888      1.2048327      1.4884836      1.0050501     -0.65753784    -0.4049681      0.90362249     6.5527032      6.5527032      6.5527032      0              0              0              0.78191797   
     12000   1.346724       0.80552155    -3.1309112     -0.016709978    0.80860868     1.6912583      0.58365875     0.15090895     0.022491994    0.61734019     0.033875596    6.4880647      6.4880647      6.4880647      0              0              0              0.80552155   
     13000   1.2770244      0.80974354    -3.248054      -0.25064311     0.80345106     1.2475394      0.55734685     0.60546695    -0.17764467     0.034908799   -0.049535914    6.4767688      6.4767688      6.4767688      0              0              0              0.80974354   
     14000   1.3936819      0.79672325    -3.1516434      0.41793316     1.0788403      0.97311416     1.5855265      0.67788019    -0.23394443     0.11731162    -0.13069707     6.5118601      6.5118601      6.5118601      0              0              0              0.79672325   
     15000   1.4738289      0.7985602     -3.0967885      0.64484794     1.1193976      0.88076396     0.91582802     1.5616007     -0.021429372   -1.2127704     -0.33537582     6.5068632      6.5068632      6.5068632      0              0              0              0.7985602    
     16000   1.4486883      0.80091893    -3.0239609      0.18074117     0.75907802     0.58991879     1.0166492      0.67066608    -0.028744225   -0.18496719     0.17069932     6.5004692      6.5004692      6.5004692      0              0              0              0.80091893   
     17000   1.3332711      0.81001475    -3.1473211     -0.094995922    0.78234028     0.56420324    -0.029663412    1.812481       0.45609279    -0.10422864     0.57222853     6.4760459      6.4760459      6.4760459      0              0              0              0.81001475   
     18000   1.2890421      0.81330218    -3.3020536     -0.73187013     0.4778432      1.1582879      0.12290138     0.15234028    -0.39291114     0.44877195    -0.35857054     6.4673086      6.4673086      6.4673086      0              0              0              0.81330218   
     19000   1.1943368      0.8151211     -3.3585109     -1.6702481     -0.06986696    -0.27890938    -0.50320631     0.57251481    -0.6673671     -1.0545309     -0.0043887532   6.4624944      6.4624944      6.4624944      0              0              0              0.8151211    
     20000   1.2671156      0.79897107    -3.083282       0.26670973     1.0595966      1.3352293      1.3319748      0.51158586     0.5415667      0.65501137     0.17283973     6.5057476      6.5057476      6.5057476      0              0              0              0.79897107   
     21000   1.3378393      0.82667239    -3.1532536      0.71932638     1.4097431      1.2888278      1.7725616      1.1678399     -0.03374162     0.4700744      0.69447187     6.4322525      6.4322525      6.4322525      0              0              0              0.82667239   
     22000   1.2221622      0.79907146    -3.172617       0.030087058    1.0014741      1.2815628      0.49008274     1.2327768      0.12722079     0.17805879     0.51969667     6.5054751      6.5054751      6.5054751      0              0              0              0.79907146   
     23000   1.180118       0.80560372    -3.0493677     -0.11862041     0.85644555     1.3711985      0.74765755     0.45048062     0.27649017     0.10262589     0.5982205      6.4878441      6.4878441      6.4878441      0              0              0              0.80560372   
     24000   1.0992576      0.84308236    -3.5451216     -1.1852646      0.55123402     0.75973761     0.74759744     0.14636701    -0.40774225    -0.3489496     -0.085949441    6.3902457      6.3902457      6.3902457      0              0              0              0.84308236   
     25000   1.3245128      0.83696564    -3.5045804      0.24178069     1.346393       1.6750181      1.6537441      0.71041668    -0.098145951   -0.45353672    -0.26560016     6.4057751      6.4057751      6.4057751      0              0              0              0.83696564   
     26000   1.2193946      0.80584056    -3.3363276     -0.5096         0.73755016     0.22498199     1.4277182      0.5599503      0.16309053    -0.4494593      0.12618817     6.4872084      6.4872084      6.4872084      0              0              0              0.80584056   
     27000   1.3490844      0.83416388    -3.4533283      0.7375871      1.6511947      1.9257083      1.0962794      1.9315965     -0.46444829    -0.02111867    -0.05115273     6.4129389      6.4129389      6.4129389      0              0              0              0.83416388   
     28000   1.3315821      0.83010922    -3.3940227     -0.45624249     0.71720979     0.22347469     0.7541511      1.1740036      0.29542157    -0.56783215     0.23605717     6.4233632      6.4233632      6.4233632      0              0              0              0.83010922   
     29000   1.3104918      0.80090132    -3.314967      -0.32725676     0.75124628     0.73990091     0.58626992     0.92756802     0.60114018     0.17328456    -0.2649077      6.5005169      6.5005169      6.5005169      0              0              0              0.80090132   
     30000   1.1952223      0.82533783    -3.34285       -0.20460931     1.0161945      0.46096961     1.9676442      0.61996978    -0.8687208      0.21115455    -0.88553302     6.4357176      6.4357176      6.4357176      0              0              0              0.82533783   
     31000   0.98119019     0.85179518    -3.538248      -0.47778058     1.2359091      1.3415481      1.4908128      0.87536643    -0.59204194     0.29755238     0.59362761     6.3683829      6.3683829      6.3683829      0              0              0              0.85179518   
     32000   1.1383167      0.84760195    -3.514211       0.29168243     1.6235089      1.3273346      1.4322843      2.1109077     -0.022128331    0.79271793    -0.16199581     6.3788675      6.3788675      6.3788675      0              0              0              0.84760195   
     33000   1.138928       0.84403391    -3.3449442     -0.015123868    1.250682       1.0999939      1.7999937      0.8520586     -0.20595805     0.41149039     0.29396412     6.3878434      6.3878434      6.3878434      0              0              0              0.84403391   
     34000   1.1424825      0.84610434    -3.5101906     -0.58504246     0.93840117     0.51762756     0.66634806     1.6312279      0.35259193     0.28498646    -0.10347275     6.3826288      6.3826288      6.3826288      0              0              0              0.84610434   
     35000   1.0860336      0.82773696    -3.4487525     -1.0479385      0.58687221     0.92711069    -0.17994312     1.0134491     -0.46979997     0.31979526    -0.32419778     6.4294937      6.4294937      6.4294937      0              0              0              0.82773696   
     36000   1.1067174      0.83848357    -3.587184      -0.94512922     0.7548479      0.75377904     0.76107163     0.74969303     0.17134984     0.038016719    0.35215703     6.4019072      6.4019072      6.4019072      0              0              0              0.83848357   
     37000   1.0579825      0.85718068    -3.6625047     -0.66947383     1.1018605      1.3132296      1.0760783      0.91627365    -0.23310485     0.90087686    -0.015867384    6.3550178      6.3550178      6.3550178      0              0              0              0.85718068   
     38000   1.0341473      0.85223342    -3.4979282      0.01341799     1.5246311      1.3377869      1.5401426      1.6959637     -0.47118589    -0.078151474   -0.20504954     6.3672911      6.3672911      6.3672911      0              0              0              0.85223342   
     39000   1.0831814      0.84777774    -3.4359793     -0.10765861     1.319198       1.5174518      1.5764469      0.8636953      0.59739426     0.37503194     0.24836626     6.3784265      6.3784265      6.3784265      0              0              0              0.84777774   
     40000   1.0921443      0.85829729    -3.6928322     -0.13456476     1.5045499      1.3912857      1.6708632      1.451501       0.047294058   -0.22144985    -0.20963925     6.3522607      6.3522607      6.3522607      0              0              0              0.85829729   
     41000   1.0404554      0.87808072    -3.8598402     -1.3931247      0.72947418     1.0103511      0.31044787     0.86762355    -0.67415392     0.23913337    -0.5806582      6.3041917      6.3041917      6.3041917      0              0              0              0.87808072   
     42000   1.080265       0.84302923    -3.6843003     -1.1024893      0.74302728     0.56166327     0.8869239      0.78049467    -0.43461986    -0.11735657    -0.47644782     6.39038        6.39038        6.39038        0              0              0              0.84302923   
     43000   1.1543944      0.8527668     -3.6186151     -0.28945782     1.2452129      1.7878756      0.78045772     1.1673054     -0.84776144    -0.71258873    -0.35748669     6.3659633      6.3659633      6.3659633      0              0              0              0.8527668    
     44000   1.1240225      0.87812969    -3.7653433     -0.34072689     1.3946399      2.1953533      1.6016906      0.38687569     0.34922185    -0.17475541     0.32997205     6.3040745      6.3040745      6.3040745      0              0              0              0.87812969   
     45000   0.98275817     0.83751185    -3.6761639     -0.57161736     1.2469638      0.94394019     1.1410545      1.6558967     -0.020579277    0.13178629    -0.5295141      6.4043822      6.4043822      6.4043822      0              0              0              0.83751185   
     46000   1.0023643      0.87483885    -3.7461006     -0.92101544     1.0570093      1.0996354      0.49633023     1.5750624     -0.20340198    -0.32850325     0.7589872      6.3119692      6.3119692      6.3119692      0              0              0              0.87483885   
     47000   0.93897484     0.88621318    -4.0281858     -1.2739647      1.089882       1.3123956      1.22787        0.72938026    -0.048706047    0.18490259     0.28727126     6.2848487      6.2848487      6.2848487      0              0              0              0.88621318   
     48000   0.98562275     0.8636014     -3.8140852     -1.2310773      0.87299577     1.2570303      0.65049428     0.71146267     0.12193833     0.094887003    0.14677638     6.3392291      6.3392291      6.3392291      0              0              0              0.8636014    
     49000   1.0208516      0.83788188    -3.7669316     -2.3493984     -0.080808222   -0.43329586     0.092534022    0.098337173   -0.046232604    0.25504731     0.10039392     6.4034393      6.4034393      6.4034393      0              0              0              0.83788188   
     50000   0.98986068     0.91963592    -3.9901534      0.72435266     2.7063539      2.1726649      3.3467187      2.599678      -0.69397858    -0.33669269     0.39109594     6.2077695      6.2077695      6.2077695      0              0              0              0.91963592   
     51000   0.97315515     0.85138336    -3.7926741     -2.021214       0.24692133     0.61030233     0.8417172     -0.71125555    -0.27451866     0.40551786     0.41420046     6.3694095      6.3694095      6.3694095      0              0              0              0.85138336   
     52000   0.94604746     0.87566591    -3.9292493     -0.58295541     1.5398331      2.1729987      1.5318696      0.91463092    -0.11507018     0.10454969    -0.23544657     6.3099814      6.3099814      6.3099814      0              0              0              0.87566591   
     53000   1.0462359      0.88192918    -3.9097274     -1.2453562      0.88422556     0.24744086     1.3303434      1.0748924     -0.0078968235   0.20969928     0.84824144     6.2950085      6.2950085      6.2950085      0              0              0              0.88192918   
     54000   0.86640367     0.86034648    -3.833737      -1.9503699      0.46166161     0.35426403     0.64434961     0.38637119    -0.58894167    -0.022319138    0.83016565     6.3472134      6.3472134      6.3472134      0              0              0              0.86034648   
     55000   0.9560939      0.89379826    -4.107471      -0.95142636     1.4049489      1.0998401      2.0643679      1.0506387      0.10580775     0.39128947    -0.58625935     6.2670197      6.2670197      6.2670197      0              0              0              0.89379826   
     56000   0.96043005     0.87631861    -3.9499979     -2.5443507     -0.022142657    0.032432119    0.063922349   -0.16278244     0.77290723     0.44068032     0.025835432    6.3084144      6.3084144      6.3084144      0              0              0              0.87631861   
     57000   0.95362912     0.90062545    -4.122027      -1.5455425      0.94417729     1.1670595      0.60287055     1.0626018     -0.083858797   -0.44390881     0.036087998    6.2511438      6.2511438      6.2511438      0              0              0              0.90062545   
     58000   0.89803844     0.91829554    -4.1672496     -1.1154441      1.4287703      1.5164541      1.1001684      1.6696884     -0.22002608     0.69527029    -0.54155964     6.2107884      6.2107884      6.2107884      0              0              0              0.91829554   
     59000   0.84818889     0.85956095    -3.8585717     -1.0711186      1.1889535      0.95470729     0.75949029     1.8526628      0.040404051    0.46408297    -0.42860428     6.3491463      6.3491463      6.3491463      0              0              0              0.85956095   
     60000   0.93464467     0.9006954     -4.1009472     -1.0368905      1.3666821      2.2858807      1.0040739      0.81009169    -0.098053617   -0.24894979     0.21638212     6.250982       6.250982       6.250982       0              0              0              0.9006954    
     61000   0.80573068     0.91061064    -4.2335508     -1.4664304      1.2951924      1.0597143      1.1688886      1.6569741     -0.245297      -0.42130757     0.20628931     6.228211       6.228211       6.228211       0              0              0              0.91061064   
     62000   0.93343316     0.9218786     -4.2798249     -1.198711       1.4146352      1.536927       0.97031639     1.7366621     -0.33065606     0.84310173    -0.071490262    6.2027315      6.2027315      6.2027315      0              0              0              0.9218786    
     63000   0.9986423      0.91899307    -4.2802345     -0.9384449      1.5466787      2.0831558      0.76300213     1.7938782      0.87025925    -0.61435457    -0.3452497      6.2092167      6.2092167      6.2092167      0              0              0              0.91899307   
     64000   0.92103437     0.90019863    -4.318489      -2.6426082      0.24652105     0.078099848    0.43708388     0.22437942    -0.84056349     0.13307393     0.090710948    6.2521316      6.2521316      6.2521316      0              0              0              0.90019863   
     65000   0.87283251     0.89454906    -4.2318962     -2.0092154      0.74815065     0.75651918     0.45337118     1.0345616      0.2569334     -0.71953573     0.52670859     6.2652659      6.2652659      6.2652659      0              0              0              0.89454906   
     66000   0.76889947     0.95763668    -4.5883357     -1.8863381      1.3532408      0.43457399     1.5121901      2.1129584     -0.60299752     0.098319306    0.073344837    6.124547       6.124547       6.124547       0              0              0              0.95763668   
     67000   0.75331149     0.91179262    -4.2389866     -2.2199062      0.74167118     0.42303148     1.2663207      0.53566131     0.10978301     0.036381113   -0.25028307     6.2255186      6.2255186      6.2255186      0              0              0              0.91179262   
     68000   0.80846722     0.90825302    -4.3242257     -2.1852197      0.76984245     0.23787174     0.46635158     1.605304      -0.3340765     -0.33698958     0.96057244     6.2335954      6.2335954      6.2335954      0              0              0              0.90825302   
     69000   0.89785722     0.93048539    -4.2846942     -1.2872145      1.4020112      1.5300275      1.6643891      1.0116171      0.028584876   -0.47560103    -0.27847258     6.1835476      6.1835476      6.1835476      0              0              0              0.93048539   
     70000   0.83112648     0.91909399    -4.347884      -1.0065468      1.7553701      1.3521003      2.1371161      1.7768939      0.27263694    -0.47068296     0.1255767      6.2089894      6.2089894      6.2089894      0              0              0              0.91909399   
     71000   0.71762289     0.89743674    -4.3118652     -2.7061935      0.43617019     0.87085382     0.04319379     0.39446295     0.30310035     0.16932048     0.26206977     6.2585387      6.2585387      6.2585387      0              0              0              0.89743674   
     72000   0.74191665     0.9361612     -4.4581702     -2.3547267      0.84776449     0.49828977     1.1906647      0.85433899     0.52736397    -0.64449042    -0.61192075     6.1710256      6.1710256      6.1710256      0              0              0              0.9361612    
     73000   0.80142092     0.93314506    -4.4985777     -2.1654033      0.96457822     1.3434928      0.85241933     0.69782255     0.28596005     0.24694441     0.75681821     6.1776672      6.1776672      6.1776672      0              0              0              0.93314506   
     74000   0.75379233     0.93762765    -4.4269004     -1.5611684      1.4837506      0.95658537     1.8780548      1.6166115      0.49410545     0.37475179     0.42903039     6.1678067      6.1678067      6.1678067      0              0              0              0.93762765   
     75000   0.74466598     0.9387904     -4.4702335     -2.0122444      1.1492289      0.80827339     1.1748116      1.4646018     -0.40432599     0.83462207     0.17473586     6.1652593      6.1652593      6.1652593      0              0              0              0.9387904    
     76000   0.71023544     0.94499946    -4.6240401     -2.2269207      1.1486838      1.8778267      0.93880334     0.62942135     0.11584644     0.2474713     -0.015102369    6.1517268      6.1517268      6.1517268      0              0              0              0.94499946   
     77000   0.8014639      0.94462975    -4.6316012     -3.1264321      0.26534156    -0.01480369     0.77327357     0.037554813   -0.053046424   -0.039801393    0.61269893     6.1525292      6.1525292      6.1525292      0              0              0              0.94462975   
     78000   0.6957053      0.96303775    -4.7389196     -2.4103607      1.1295721      0.97695459     1.5485621      0.8631996      0.27501458     0.37059481     0.57288107     6.1130759      6.1130759      6.1130759      0              0              0              0.96303775   
     79000   0.74102485     0.93671246    -4.6154503     -2.7271602      0.66618178     0.59851158     0.63024195     0.7697918      0.012413873    0.17936307     0.088628699    6.1698148      6.1698148      6.1698148      0              0              0              0.93671246   
     80000   0.67118206     0.97042948    -4.8017872     -2.3660718      1.2650661      0.68621168     1.6140351      1.4949515     -0.12746187     0.15621981     0.010252683    6.0975153      6.0975153      6.0975153      0              0              0              0.97042948   
     81000   0.72057878     0.95011764    -4.7356114     -2.6231087      0.89573536     0.34342532     0.90991467     1.4338661     -0.12377649     0.40797962     0.72335641     6.1406607      6.1406607      6.1406607      0              0              0              0.95011764   
     82000   0.64007046     0.97291889    -4.8031607     -2.0538311      1.5867639      1.9312594      1.8274148      1.0016174      0.24444118     0.37451628     0.19938793     6.0923103      6.0923103      6.0923103      0              0              0              0.97291889   
     83000   0.66748777     0.9502437     -4.6877271     -2.9236781      0.66329043     0.74830568     1.4624918     -0.22092615     0.055201052   -0.77805078     0.27924866     6.1403891      6.1403891      6.1403891      0              0              0              0.9502437    
     84000   0.75598893     0.96921807    -4.7918736     -2.0858075      1.3901694      1.6411506      1.4686276      1.06073        0.18554969     0.02435363    -0.1002679      6.1000547      6.1000547      6.1000547      0              0              0              0.96921807   
     85000   0.66357885     0.95255044    -4.7552173     -2.6509983      0.96452448     0.86469917     0.83765896     1.1912153      0.018997243   -0.20531421    -0.14497456     6.1354285      6.1354285      6.1354285      0              0              0              0.95255044   
     86000   0.63358276     0.98794237    -4.9355794     -2.2960531      1.521345       1.6868706      1.3877191      1.4894455      0.29418734     0.40317987    -0.27064234     6.0612708      6.0612708      6.0612708      0              0              0              0.98794237   
     87000   0.65162369     0.96025114    -4.785888      -2.8229057      0.86460483     1.6004249     -0.2185144      1.211904      -0.18240332    -0.74221445    -0.0036656241   6.1189835      6.1189835      6.1189835      0              0              0              0.96025114   
     88000   0.65576392     0.98497059    -4.9586711     -2.4964418      1.3283686      1.2624863      1.0709826      1.6516369      0.32282105    -0.64248912    -0.41647229     6.0673606      6.0673606      6.0673606      0              0              0              0.98497059   
     89000   0.62469665     0.97185346    -4.9431431     -3.5074551      0.4446921      0.73409255    -0.22686572     0.82684948     0.68927085    -0.45563811    -0.13634961     6.0945358      6.0945358      6.0945358      0              0              0              0.97185346   
     90000   0.61325663     0.97840735    -5.029376      -2.7883948      1.1791549      1.5270062      0.82043081     1.1900276      0.25612142    -0.1740259      0.095773042    6.0808972      6.0808972      6.0808972      0              0              0              0.97840735   
     91000   0.60673083     0.97219826    -4.9032452     -3.0569934      0.83141162     0.81744054     0.89588721     0.78090711     0.43254148    -0.14304888     0.69529753     6.0938152      6.0938152      6.0938152      0              0              0              0.97219826   
     92000   0.62848808     0.97974662    -4.934191      -2.2420918      1.5623224      1.5679456      1.3332356      1.7857861     -0.12564416    -0.20993666     0.36754452     6.0781251      6.0781251      6.0781251      0              0              0              0.97974662   
     93000   0.62159048     0.99186572    -5.0364619     -2.738385       1.235642       1.6973685      1.0807573      0.92880042     0.13383866    -0.67176767     0.17890271     6.0532684      6.0532684      6.0532684      0              0              0              0.99186572   
     94000   0.52812845     0.97610765    -4.9835324     -3.121801       0.95259203     1.0472511      0.74974338     1.0607816     -0.2338534     -0.16122757     0.3219257      6.0856689      6.0856689      6.0856689      0              0              0              0.97610765   
     95000   0.52450687     0.98276082    -4.9759652     -2.7441129      1.294587       0.95399559     1.3288229      1.6009424      0.86132656    -0.88873803     0.5244328      6.0719047      6.0719047      6.0719047      0              0              0              0.98276082   
     96000   0.49766215     0.98911037    -5.0153448     -2.939721       1.1984988      2.2517631      0.93506053     0.40867288     0.36190701    -0.11775224     0.15984741     6.058884       6.058884       6.058884       0              0              0              0.98911037   
     97000   0.50527463     0.98574336    -5.0704602     -3.5223867      0.7114837      1.2021706      0.59093845     0.34134202     0.31295779     0.50823795    -0.11900321     6.0657747      6.0657747      6.0657747      0              0              0              0.98574336   
     98000   0.54813263     0.99315835    -5.0728174     -3.1220457      1.0226676      0.89449806     1.0001503      1.1733544      0.24765804    -0.2390891      0.18242145     6.0506411      6.0506411      6.0506411      0              0              0              0.99315835   
     99000   0.4888167      0.98605628    -5.0920558     -3.6691991      0.62148239     0.68602389     0.74042146     0.43800181     0.21972003     0.12636329     0.23164447     6.065133       6.065133       6.065133       0              0              0              0.98605628   
    100000   0.47739229     0.99831824    -5.1473477     -2.6942819      1.5796643      1.502676       1.975578       1.2607387      0.69286306     0.11817556     0.017757224    6.0401987      6.0401987      6.0401987      0              0              0              0.99831824   
    101000   0.54164341     0.99058988    -5.1414828     -3.1036879      1.1071121      1.3844025      1.054797       0.88213676     0.21190237    -0.036936802    0.27293798     6.0558661      6.0558661      6.0558661      0              0              0              0.99058988   
    102000   0.46364994     1.0058108     -5.1935732     -3.4640481      0.94868768     1.3103865      0.46581685     1.0698596      0.61636778     0.023900152    0.49888655     6.025163       6.025163       6.025163       0              0              0              1.0058108    
    103000   0.46576657     0.99625615    -5.1552213     -3.6779601      0.70834225     0.57983572     0.52874695     1.0164441     -0.22697939    -0.31052534     0.51007395     6.0443632      6.0443632      6.0443632      0              0              0              0.99625615   
    104000   0.43115843     1.0070388     -5.214635      -3.0702749      1.3740185      1.7820478      1.3285717      1.011436       0.27427699    -0.25751404    -0.019841419    6.0227129      6.0227129      6.0227129      0              0              0              1.0070388    
    105000   0.52881068     0.99592224    -5.2253832     -3.7881936      0.58663413     0.54013062     0.22751204     0.99225973    -0.023580594   -0.074042798    0.63540807     6.0450387      6.0450387      6.0450387      0              0              0              0.99592224   
    106000   0.458194       1.0216568     -5.293654      -3.0014359      1.4938142      1.357945       1.3770098      1.7464877      0.46597532    -0.029913876   -0.11790105     5.9938501      5.9938501      5.9938501      0              0              0              1.0216568    
    107000   0.43233711     0.99832425    -5.2436542     -3.8599772      0.67016037     0.23702532     0.53032366     1.2431321      0.036886306   -0.22355699    -0.54027462     6.0401866      6.0401866      6.0401866      0              0              0              0.99832425   
    108000   0.41776278     1.0101964     -5.3272962     -3.3030084      1.286418       1.0418559      1.206862       1.610536      -0.33871023    -0.1093799      0.11201407     6.0164311      6.0164311      6.0164311      0              0              0              1.0101964    
    109000   0.40157359     0.99873837    -5.2371183     -3.8829137      0.68536695     0.28177523     1.2572226      0.51710306    -0.19634938     0.24921046     0.18948184     6.0393516      6.0393516      6.0393516      0              0              0              0.99873837   
    110000   0.45586014     1.0247203     -5.3287763     -2.7669365      1.7527083      1.9223149      2.0733202      1.2624896      0.012265708    0.51084292    -0.42663189     5.9878711      5.9878711      5.9878711      0              0              0              1.0247203    
    111000   0.38364587     1.006239      -5.2700896     -3.7107767      0.90261591     0.47969796     0.53091186     1.6972379      0.18261539     0.14024829     0.14688097     6.0243082      6.0243082      6.0243082      0              0              0              1.006239     
    112000   0.3773017      1.008026      -5.3569175     -4.0063555      0.72159932     0.96004597     0.44826123     0.75649076    -0.30371656    -0.085558419   -0.10595563     6.020746       6.020746       6.020746       0              0              0              1.008026     
    113000   0.405855       1.0156963     -5.3513655     -3.4071421      1.2359037      1.1698558      0.91163055     1.6262248     -0.19045386     0.085409069   -0.061562293    6.005552       6.005552       6.005552       0              0              0              1.0156963    
    114000   0.35379618     1.02189       -5.3173727     -3.167231       1.506917       1.2251004      1.4130046      1.8826459      0.071050295    0.22734512    -0.13618756     5.9933942      5.9933942      5.9933942      0              0              0              1.02189      
    115000   0.34445261     1.0125361     -5.3853297     -4.3079917      0.51845757     0.65028965     0.24227877     0.66280428     0.0020941889   0.28237261    -0.12667323     6.0117934      6.0117934      6.0117934      0              0              0              1.0125361    
    116000   0.32082127     1.0184315     -5.4168062     -4.4364144      0.46437337     0.41011478     0.32242199     0.66058333     0.35153215    -0.46481177    -0.73984875     6.0001709      6.0001709      6.0001709      0              0              0              1.0184315    
    117000   0.31432878     1.0232053     -5.4460319     -4.1133606      0.80324928     1.151968       0.33553961     0.92224022     0.45346683    -0.11529722    -0.46416386     5.990825       5.990825       5.990825       0              0              0              1.0232053    
    118000   0.33875395     1.0164688     -5.4264104     -4.2771133      0.59482539     0.59568332     0.16205707     1.0267358     -0.28937491    -0.28792493    -0.069421784    6.0040303      6.0040303      6.0040303      0              0              0              1.0164688    
    119000   0.30283575     1.0268623     -5.4812218     -3.8563414      1.0949134      0.59731297     1.5089953      1.1784319      0.34296262    -0.21501899     0.14075317     5.9837048      5.9837048      5.9837048      0              0              0              1.0268623    
    120000   0.30465526     1.0311884     -5.5455898     -3.9755252      1.0455937      0.70275069     1.3043626      1.1296679      0.0090743085  -0.089801163   -0.35724851     5.9753253      5.9753253      5.9753253      0              0              0              1.0311884    
    121000   0.27684343     1.0223239     -5.445983      -4.1430566      0.82690915     0.68889048     0.7049089      1.0869281     -0.23992364    -0.24235586    -0.29012443     5.9925461      5.9925461      5.9925461      0              0              0              1.0223239    
    122000   0.30232807     1.0350702     -5.5741149     -3.7331124      1.3077433      1.133114       1.3610538      1.429062       0.15779734    -0.79241939    -0.031596137    5.9678462      5.9678462      5.9678462      0              0              0              1.0350702    
    123000   0.2819397      1.033894      -5.5712265     -3.9556508      1.1229787      1.4212351      0.79873192     1.1489689     -0.075313449   -0.67152047    -0.2129836      5.9701085      5.9701085      5.9701085      0              0              0              1.033894     
    124000   0.2350191      1.0275751     -5.5597012     -4.1969606      0.94534532     1.020386       0.96740606     0.84824387     0.12462688    -0.52542012    -0.27271254     5.9823209      5.9823209      5.9823209      0              0              0              1.0275751    
    125000   0.25056864     1.0274665     -5.5603318     -4.6866081      0.46679671     0.84017121     0.27526227     0.28495664    -0.4147401      0.0080011607  -0.62512586     5.9825317      5.9825317      5.9825317      0              0              0              1.0274665    
    126000   0.22578491     1.0452988     -5.6205553     -3.6146357      1.5859422      1.9420873      1.5066419      1.3090973     -0.10695025    -0.39430725    -0.49153665     5.9483166      5.9483166      5.9483166      0              0              0              1.0452988    
    127000   0.23771832     1.0360271     -5.611471      -4.3083799      0.8931462      1.2444719      0.21013005     1.2248367     -0.17508256     0.12224716    -0.28124176     5.9660083      5.9660083      5.9660083      0              0              0              1.0360271    
    128000   0.21610861     1.0373168     -5.6366814     -4.2482365      1.0051626      0.97789392     0.75293254     1.2846615      0.14687947    -0.30086839    -0.21918844     5.9635348      5.9635348      5.9635348      0              0              0              1.0373168    
    129000   0.21774018     1.0393136     -5.6843973     -4.4208161      0.88682172     1.0916734      0.89404379     0.674748       0.030831684   -0.22829426    -0.51960568     5.9597131      5.9597131      5.9597131      0              0              0              1.0393136    
    130000   0.20905312     1.0355613     -5.6694347     -4.4169196      0.88540798     0.86181977     0.79989306     0.9945111     -0.33296258    -0.2510569     -0.37417734     5.9669028      5.9669028      5.9669028      0              0              0              1.0355613    
    131000   0.18542492     1.0461343     -5.6565852     -4.0520623      1.2627565      1.3308501      1.2264311      1.2309884      0.22152943    -0.44019496    -0.26682479     5.9467327      5.9467327      5.9467327      0              0              0              1.0461343    
    132000   0.1684454      1.0456244     -5.6778375     -4.1139185      1.2476335      0.97948792     1.4021729      1.3612396     -0.097670838   -0.057543745   -0.39166484     5.9476991      5.9476991      5.9476991      0              0              0              1.0456244    
    133000   0.17047807     1.036422      -5.7121261     -4.6685824      0.74349633     0.65084554     0.81438354     0.76525992    -0.034824001   -0.4677811     -0.36812041     5.9652504      5.9652504      5.9652504      0              0              0              1.036422     
    134000   0.17692743     1.0461997     -5.7456166     -4.5626522      0.87395739     0.83990085     0.71965119     1.0623201     -0.23624369    -0.32330066    -0.19630504     5.9466087      5.9466087      5.9466087      0              0              0              1.0461997    
    135000   0.15045781     1.0525949     -5.762026      -4.2777353      1.2054435      1.0626686      1.2497187      1.3039432      0.039902933   -0.35500467    -0.41806631     5.9345411      5.9345411      5.9345411      0              0              0              1.0525949    
    136000   0.14903864     1.0379613     -5.7375245     -4.8593523      0.61874956     0.41681273     0.74641731     0.69301863    -0.057171138   -0.24151792    -0.23774482     5.9623002      5.9623002      5.9623002      0              0              0              1.0379613    
    137000   0.13278587     1.0506958     -5.7767556     -4.4467734      1.0810698      1.0009019      0.82305224     1.4192552      0.062858857   -0.24270818    -0.43961873     5.9381145      5.9381145      5.9381145      0              0              0              1.0506958    
    138000   0.13328944     1.0554251     -5.7440904     -4.1075474      1.3793529      1.566644       1.0108218      1.5605927     -0.042836016   -0.39043331    -0.5032312      5.9292317      5.9292317      5.9292317      0              0              0              1.0554251    
    139000   0.10480141     1.0435686     -5.7995672     -5.0698799      0.5438616      0.42811915     0.46345108     0.74001458    -0.052704571   -0.5484857     -0.32821435     5.9516022      5.9516022      5.9516022      0              0              0              1.0435686    
    140000   0.094594087    1.0502942     -5.8241232     -4.7779034      0.86414211     0.91786394     0.66800188     1.0065605      0.0087928464  -0.37204709    -0.43388813     5.9388713      5.9388713      5.9388713      0              0              0              1.0502942    
Loop time of 73.7946 on 1 procs for 140000 steps with 200 atoms

Performance: 327828.703 tau/day, 1897.157 timesteps/s
49.9% CPU use with 1 MPI tasks x 1 OpenMP threads

MPI task timing breakdown:
Section |  min time  |  avg time  |  max time  |%varavg| %total
---------------------------------------------------------------
Pair    | 64.827     | 64.827     | 64.827     |   0.0 | 87.85
Bond    | 1.2752     | 1.2752     | 1.2752     |   0.0 |  1.73
Neigh   | 0.36673    | 0.36673    | 0.36673    |   0.0 |  0.50
Comm    | 3.7826     | 3.7826     | 3.7826     |   0.0 |  5.13
Output  | 1.0473     | 1.0473     | 1.0473     |   0.0 |  1.42
Modify  | 1.7737     | 1.7737     | 1.7737     |   0.0 |  2.40
Other   |            | 0.7219     |            |       |  0.98

Nlocal:            200 ave         200 max         200 min
Histogram: 1 0 0 0 0 0 0 0 0 0
Nghost:           4243 ave        4243 max        4243 min
Histogram: 1 0 0 0 0 0 0 0 0 0
Neighs:          62203 ave       62203 max       62203 min
Histogram: 1 0 0 0 0 0 0 0 0 0

Total # of neighbors = 62203
Ave neighs/atom = 311.015
Ave special neighs/atom = 8.28
Neighbor list builds = 108
Dangerous builds = 0
System init for write_data ...
Generated 0 of 1 mixed pair_coeff terms from geometric mixing rule
WARNING: Not all mixed pair coeffs generated from mixing. Use write_data with 'pair ij' option to store all pair coeffs. (src/write_data.cpp:309)
Total wall time: 0:01:13
