LAMMPS (23 Jun 2022)
OMP_NUM_THREADS environment is not set. Defaulting to 1 thread. (src/comm.cpp:98)
  using 1 OpenMP thread(s) per MPI task
Reading data file ...
  orthogonal box = (0 0 0) to (200 200 200)
  1 by 1 by 1 MPI processor grid
  reading atoms ...
  200 atoms
  scanning bonds ...
  1 = max bonds/atom
  reading bonds ...
  80 bonds
Finding 1-2 1-3 1-4 neighbors ...
  special bond factors lj:    0        0        0       
  special bond factors coul:  0        0        0       
     1 = max # of 1-2 neighbors
     0 = max # of 1-3 neighbors
     0 = max # of 1-4 neighbors
     1 = max # of special neighbors
  special bonds CPU = 0.000 seconds
  read_data CPU = 0.007 seconds
Generated 0 of 1 mixed pair_coeff terms from geometric mixing rule
Neighbor list info ...
  update every 1 steps, delay 0 steps, check yes
  max neighbors/atom: 2000, page size: 100000
  master list distance cutoff = 5.5
  ghost atom cutoff = 5.5
  binsize = 2.75, bins = 73 73 73
  1 neighbor lists, perpetual/occasional/extra = 1 0 0
  (1) pair lj/cut, perpetual
      attributes: half, newton on
      pair build: half/bin/newton
      stencil: half/bin/3d
      bin: standard
Setting up Verlet run ...
  Unit style    : lj
  Current step  : 0
  Time step     : 0.002
Per MPI rank memory allocation (min/avg/max) = 7.938 | 7.938 | 7.938 Mbytes
   Step          Temp         Density         PotEng        Enthalpy        Press           Pxx            Pyy            Pzz            Pxy            Pxz            Pyz             Lx             Ly             Lz             Xy             Yz             Xz          Density    
         0   1              2.75e-05       2.2913944e-28  2.4875         2.4875e-05     2.4540872e-05  2.7057051e-05  2.3027077e-05 -8.5634887e-07  1.0219777e-06  4.891355e-07   200            200            200            0              0              0              2.75e-05     
       100   2.5460692      0.00020837979  4.84198       -3.056329      -0.0022160845  -0.0064438455  -9.1411273e-05 -0.00011299676 -0.00011418486  0.00013728392 -2.0090717e-05  101.8253       101.8253       101.8253       0              0              0              0.00020837979
       200   4.2640173      0.00048094567  1.6515352      17.205317      0.0040179672   0.0058416615   0.0033636118   0.0028486284  -4.2624545e-05 -8.577244e-05   7.8886212e-05  77.050516      77.050516      77.050516      0              0              0              0.00048094567
       300   3.4109398      0.00083253532  0.10441452     9.156491       0.0029980724   0.0036044164   0.0028719584   0.0025178425  -3.4032189e-05 -8.0698972e-05  5.233082e-05   64.171177      64.171177      64.171177      0              0              0              0.00083253532
       400   2.655285       0.00125184     1.539486       0.87914727    -0.0052615423  -0.0047340665  -0.0058803588  -0.0051702016  -0.00041604515 -0.00027527487 -0.0002118519   56.013316      56.013316      56.013316      0              0              0              0.00125184   
       500   1.8152613      0.0017357834   1.65855        11.414589      0.011119683    0.010031248    0.012941831    0.01038597    -0.00051231376  0.00065346291  0.00020373837  50.23145       50.23145       50.23145       0              0              0              0.0017357834 
       600   1.8893944      0.0022800027   0.34857231     2.2639163     -0.0018749439  -0.0020986785  -0.0023670953  -0.0011590579   0.00014901358 -0.00044463908 -0.00013840319  45.866518      45.866518      45.866518      0              0              0              0.0022800027 
       700   2.0017684      0.0028744033   0.25692579     2.6381513     -0.0015846164  -0.00072267447 -0.0019506421  -0.0020805326  -0.00042430637 -0.00043030107  8.2460529e-05  42.457882      42.457882      42.457882      0              0              0              0.0028744033 
       800   1.0068142      0.0035283546   0.97681245     7.785347       0.017019064    0.016020238    0.019768632    0.015268322   -0.0012440897   0.0013589977   0.00012830094  39.653679      39.653679      39.653679      0              0              0              0.0035283546 
       900   0.96036343     0.0042287832   0.67312832    -1.3693661     -0.013362328   -0.013204043   -0.015927219   -0.010955721    0.0011216196  -0.0016737616  -0.00031045442  37.330954      37.330954      37.330954      0              0              0              0.0042287832 
      1000   1.4246373      0.004974158    0.052493624    3.9760773      0.0081273787   0.0073465215   0.01006866     0.0069669544  -0.0010283234   0.00048684099  0.00026562423  35.364515      35.364515      35.364515      0              0              0              0.004974158  
      1100   0.91845978     0.0057767266   0.34800186     5.3996282      0.019330109    0.021649833    0.020359889    0.015980606   -0.0017159946   0.0010104555  -0.00010917431  33.644465      33.644465      33.644465      0              0              0              0.0057767266 
      1200   0.69314018     0.0066110978   0.68669517    -2.2633158     -0.023947336   -0.028701717   -0.025392644   -0.017747646    0.0022247167  -0.0019479958  -0.00017314333  32.164961      32.164961      32.164961      0              0              0              0.0066110978 
      1300   0.99535053     0.0074954616   0.27479009     5.083321       0.022642905    0.024594014    0.025321849    0.018012852   -0.0016923684   0.00045986262 -0.0013612389   30.846657      30.846657      30.846657      0              0              0              0.0074954616 
      1400   1.0350204      0.0084291047  -0.0012491527   3.2778339      0.013289749    0.01795844     0.012190408    0.0097203998  -0.0015286021   0.00042579905 -0.00040561721  29.662909      29.662909      29.662909      0              0              0              0.0084291047 
      1500   0.89340246     0.009383588    0.39792474    -0.94260836    -0.022810106   -0.037191367   -0.019962134   -0.011276815    0.0020612821  -0.0008214417   0.0019762888   28.620986      28.620986      28.620986      0              0              0              0.009383588  
      1600   0.85938088     0.010397817    0.45650312     5.5274413      0.035809251    0.046832536    0.034828086    0.025767131   -0.0038321697  -0.001038117   -0.0016420808   27.658386      27.658386      27.658386      0              0              0              0.010397817  
      1700   1.0889227      0.01144603     0.051083072    1.4261632     -0.0026027957  -0.0040468939  -0.0036617062  -9.9786951e-05  0.00095713296 -0.00046365193  0.00032453777  26.786909      26.786909      26.786909      0              0              0              0.01144603   
      1800   1.1706065      0.01251597     0.11222689     1.0575195     -0.0091234321  -0.023022527    0.0013367351  -0.0056845045   0.0025046391   0.0017616655   0.00097124491  26.000761      26.000761      26.000761      0              0              0              0.01251597   
      1900   0.90987922     0.013651369    0.43035231     5.5675378      0.046901023    0.067409381    0.039028593    0.034265095   -0.0082577825  -0.0032683874  -0.00039424478  25.258962      25.258962      25.258962      0              0              0              0.013651369  
      2000   0.97511438     0.014801556    0.27898556    -0.17899978    -0.025745874   -0.042083282   -0.024305492   -0.010848847    0.0080628042   0.0018962651  -0.0027725605   24.586975      24.586975      24.586975      0              0              0              0.014801556  
      2100   1.2291359      0.01598572    -0.040721452    2.8673984      0.015602563    0.0166497      0.017047898    0.013110092   -0.0021720798   0.00034228564 -2.2879083e-06  23.964231      23.964231      23.964231      0              0              0              0.01598572   
      2200   0.98531375     0.017231636    0.15816446     4.6703721      0.047647462    0.06718256     0.039559282    0.036200544   -0.0088295057  -0.0029099986   0.0019914228   23.372153      23.372153      23.372153      0              0              0              0.017231636  
      2300   0.82320502     0.018475979    0.3551823     -1.0089951     -0.043549747   -0.0709976     -0.031968167   -0.027683473    0.012059385    0.0019083529  -0.0041102208   22.835213      22.835213      22.835213      0              0              0              0.018475979  
      2400   1.0297021      0.019776001    0.044354318    3.6984504      0.03806459     0.049707966    0.037104306    0.0273815     -0.0070356638  -0.0013110808  -0.00010102806  22.323454      22.323454      22.323454      0              0              0              0.019776001  
      2500   1.0051365      0.021123886   -0.040166699    3.3284387      0.035880635    0.044954367    0.034373217    0.028314321   -0.0039021095   0.00025813209  0.00010378478  21.838172      21.838172      21.838172      0              0              0              0.021123886  
      2600   0.87020088     0.022460101    0.21953747    -0.77308147    -0.046786306   -0.073941766   -0.035975133   -0.030442017    0.0045632799   0.0037538234   0.0012396169   21.396217      21.396217      21.396217      0              0              0              0.022460101  
      2700   0.93262556     0.02386985     0.15628731     4.5658336      0.065481567    0.083975634    0.055918976    0.056550091   -0.008346028   -0.0073528066   0.00072319904  20.966422      20.966422      20.966422      0              0              0              0.02386985   
      2800   1.0790744      0.025299588   -0.092629155    1.9431767      0.0097814497   0.0078051768   0.009634421    0.011904751   -0.001023864    0.0014555788   0.0018216877   20.563786      20.563786      20.563786      0              0              0              0.025299588  
      2900   1.0626857      0.026731026    0.023099623    0.49498649    -0.027075407   -0.034130065   -0.02097674    -0.026119415    0.006005547    0.005016858   -0.0013473946   20.18997       20.18997       20.18997       0              0              0              0.026731026  
      3000   0.97003426     0.028246027    0.14426576     4.7206517      0.080337089    0.099350247    0.073074742    0.068586278   -0.0041148557  -0.0033594158   0.0028444176   19.822348      19.822348      19.822348      0              0              0              0.028246027  
      3100   1.0383688      0.029745378    0.012455175    0.81421925    -0.020226895   -0.035474899   -0.017042695   -0.0081630907  -0.0093828837   0.00038360569 -6.5737218e-05  19.483534      19.483534      19.483534      0              0              0              0.029745378  
      3200   1.1284637      0.03127278    -0.10043672     1.8758944      0.0083043165   0.0098099041   0.0075045254   0.0075985202   0.00092982768 -0.00036263882 -0.0018357      19.161025      19.161025      19.161025      0              0              0              0.03127278   
      3300   0.97729207     0.032880429    0.031983177    4.0754235      0.077263985    0.095920921    0.07129228     0.064578753    0.0007875742   0.0023824175   0.0036899042   18.843507      18.843507      18.843507      0              0              0              0.032880429  
      3400   0.88513612     0.034461804    0.12623889    -0.16806849    -0.05060788    -0.080239502   -0.047966146   -0.023617993   -0.0017686705  -0.0021965305   0.0011381395   18.550754      18.550754      18.550754      0              0              0              0.034461804  
      3500   1.0146343      0.036103223   -0.065132468    2.7581763      0.042961756    0.048946282    0.04343895     0.036500034    0.0006618386   9.3310927e-06  0.00085560535  18.265248      18.265248      18.265248      0              0              0              0.036103223  
      3600   1.0295256      0.037787373   -0.13905551     3.2298832      0.062945923    0.073865051    0.062859667    0.052113052   -0.0025871071   0.0072928409  -0.0019741171   17.989758      17.989758      17.989758      0              0              0              0.037787373  
      3700   0.95914601     0.039446958   -0.028254839    0.036487462   -0.049014033   -0.074104945   -0.040387672   -0.032549482    0.0013223936  -0.026636862   -6.8117224e-07  17.733851      17.733851      17.733851      0              0              0              0.039446958  
      3800   1.0015549      0.041174707   -0.08147263     3.3592084      0.072836574    0.10545453     0.052104972    0.06095022     0.00071938377  0.0087166835  -0.0010270829   17.482253      17.482253      17.482253      0              0              0              0.041174707  
      3900   1.0623959      0.042923108   -0.21189046     2.1871422      0.031739951    0.022752616    0.040098194    0.032369043   -0.0019158755   0.0059859284   0.0031033779   17.241584      17.241584      17.241584      0              0              0              0.042923108  
      4000   0.96951259     0.044671265   -0.06096753     0.64227812    -0.030203943   -0.036222112   -0.038541069   -0.015848647   -0.012105744   -0.0089783904  -0.019269604    17.013675      17.013675      17.013675      0              0              0              0.044671265  
      4100   0.95549279     0.046501748   -0.048938495    3.190848       0.076673496    0.094224325    0.081402759    0.054393405    0.009970674    0.018528192    0.0048303172   16.78744       16.78744       16.78744       0              0              0              0.046501748  
      4200   1.0166704      0.048322876   -0.15578945     1.5266915      0.0072528434  -0.024064954    0.024054347    0.021769137   -0.0068958523   0.0025169095  -0.0040931014   16.573846      16.573846      16.573846      0              0              0              0.048322876  
      4300   1.0576181      0.050154671   -0.19449242     1.1348059     -0.011362166    0.0016014398  -0.039476103    0.0037881646  -0.0080709685  -0.01487791    -0.0073627019   16.369563      16.369563      16.369563      0              0              0              0.050154671  
      4400   1.0033472      0.05207551    -0.14109974     3.226685       0.088542049    0.093429076    0.10523869     0.066958375    0.013388376    0.026037931   -0.00048901882  16.16577       16.16577       16.16577       0              0              0              0.05207551   
      4500   1.0127404      0.053958739   -0.18832926     0.95982048    -0.017824303   -0.034660455   -0.014476921   -0.0043355314  -0.0075316255  -0.0097334768  -0.014863828    15.975469      15.975469      15.975469      0              0              0              0.053958739  
      4600   1.070753       0.055876694   -0.29927792     1.9903849      0.035129372    0.031252547    0.027362165    0.046773405    0.0032000791  -0.0095740852  -0.0087158697   15.790552      15.790552      15.790552      0              0              0              0.055876694  
      4700   0.97759291     0.057854839   -0.23175926     2.5380674      0.068940312    0.084342294    0.065472056    0.057006586   -0.0023013011   0.02588706    -0.02517286     15.608494      15.608494      15.608494      0              0              0              0.057854839  
      4800   0.91426281     0.059809411   -0.18149703     0.2621511     -0.05007076    -0.056084858   -0.038272196   -0.055855226   -0.024278212    0.0031884394   7.1885494e-05  15.436579      15.436579      15.436579      0              0              0              0.059809411  
      4900   0.97430847     0.061844169   -0.2961588      2.2395152      0.060805107    0.060423485    0.067415308    0.054576529   -0.013352595    0.011256865    0.0091425982   15.265392      15.265392      15.265392      0              0              0              0.061844169  
      5000   0.98066038     0.063894152   -0.33077978     1.8448087      0.041354206    0.023919661    0.043532944    0.056610015    0.010928426    0.0086516364  -0.0013190168   15.100356      15.100356      15.100356      0              0              0              0.063894152  
      5100   0.93697641     0.065950159   -0.25478292     0.52178113    -0.037284217   -0.026401749   -0.056945192   -0.02850571     0.0043954819   0.011970435   -0.018752606    14.941778      14.941778      14.941778      0              0              0              0.065950159  
      5200   1.0056344      0.06806176    -0.32710805     2.3150669      0.070615041    0.074033128    0.06640407     0.071407924   -0.023774085    0.0057680408   0.00598831     14.78563       14.78563       14.78563       0              0              0              0.06806176   
      5300   1.007047       0.070172348   -0.31069723     1.8357426      0.041045858    0.029751306    0.048895137    0.044491131    0.014415565   -0.017751557    0.0075679606   14.635882      14.635882      14.635882      0              0              0              0.070172348  
      5400   1.0405189      0.072268859   -0.32612818     0.94816051    -0.018309366    0.0026472968   1.9899052e-05 -0.057595293   -0.006761968    0.0051257957  -0.013671946    14.492962      14.492962      14.492962      0              0              0              0.072268859  
      5500   1.0381198      0.074445745   -0.32024847     2.4403302      0.081970507    0.062469687    0.091316884    0.09212495    -0.0099595726   0.0068204743   0.0020897315   14.350298      14.350298      14.350298      0              0              0              0.074445745  
      5600   1.0275653      0.076608257   -0.32170802     1.5282332      0.02202835     0.017540889    0.023402354    0.025141808    0.018259608   -0.0071553653  -0.0083835083   14.21398       14.21398       14.21398       0              0              0              0.076608257  
      5700   1.0146068      0.078788496   -0.32001805     1.323334       0.0092434228  -0.0058140761   0.00064490562  0.032899439    0.019934665    0.01033947     0.003340288    14.081642      14.081642      14.081642      0              0              0              0.078788496  
      5800   0.9935135      0.081055761   -0.33491866     2.5655484      0.10446232     0.12252929     0.083647793    0.10720988    -0.0096486384  -0.0052484843  -0.0031564124   13.949102      13.949102      13.949102      0              0              0              0.081055761  
      5900   0.97223414     0.083253683   -0.34465146     0.94419196    -0.012277347   -0.015600456   -0.015584463   -0.005647121   -0.049911371    0.00054757547 -0.022558074    13.825253      13.825253      13.825253      0              0              0              0.083253683  
      6000   0.9702527      0.085540571   -0.3830452      1.7297518      0.051689433    0.024598576    0.058725299    0.071744425    0.0082159295   0.019588474   -0.010334255    13.700934      13.700934      13.700934      0              0              0              0.085540571  
      6100   1.0121009      0.08785768    -0.48784949     1.9018271      0.070215532    0.076864671    0.073348662    0.060433264   -0.0076469409  -0.023134549    0.036786104    13.579413      13.579413      13.579413      0              0              0              0.08785768   
      6200   0.96183573     0.090146329   -0.43852727     0.87580778    -0.0099328781  -0.031265484    0.0036343774  -0.0021675274  -0.0104112      0.0030848797  -0.00071036497  13.463507      13.463507      13.463507      0              0              0              0.090146329  
      6300   0.96126246     0.092518996   -0.46219866     1.5313054      0.04700132     0.059398274    0.022368844    0.059236842   -0.0018847873   0.0093156499   0.001384432    13.347418      13.347418      13.347418      0              0              0              0.092518996  
      6400   1.0268295      0.094895877   -0.57789908     1.505704       0.047539384    0.057031046    0.041873511    0.043713594   -0.0031693068  -0.019426675   -0.005636181    13.235036      13.235036      13.235036      0              0              0              0.094895877  
      6500   1.0223983      0.097265255   -0.58357275     0.90782823    -0.0030531115   0.018872218   -0.035736516    0.0077049637   0.011221074   -0.024345458    0.00083529049  13.126683      13.126683      13.126683      0              0              0              0.097265255  
      6600   0.99913668     0.099693089   -0.56957467     1.4646412      0.049212528    0.043179396    0.015254515    0.089203675   -0.016355892    0.0020387833   0.017839086    13.019247      13.019247      13.019247      0              0              0              0.099693089  
      6700   1.047976       0.10212426    -0.67672719     1.2038166      0.029378331    0.0025200664   0.064478001    0.021136925   -0.00096772848 -0.033406116   -0.021323398    12.915104      12.915104      12.915104      0              0              0              0.10212426   
      6800   1.0572205      0.10456167    -0.73728894     1.030209       0.018022279   -0.0010370257   0.013871277    0.041232585   -0.011693776   -0.007366414   -0.011402229    12.813961      12.813961      12.813961      0              0              0              0.10456167   
      6900   0.97147486     0.10706294    -0.67509215     1.6016395      0.080472921    0.066855619    0.035375014    0.13918813    -0.029721617   -0.01892922     0.028846362    12.713384      12.713384      12.713384      0              0              0              0.10706294   
      7000   0.92414106     0.10956336    -0.66407245     0.80795426     0.009237802    0.0044601786  -0.026769628    0.050022856   -0.012065603    0.0059263503  -0.0078847646   12.615925      12.615925      12.615925      0              0              0              0.10956336   
      7100   0.95230261     0.11210177    -0.73391283     0.81292283     0.012792241   -0.00092247909  0.025621995    0.013677207    0.016638625    0.017580673    0.015392305    12.519973      12.519973      12.519973      0              0              0              0.11210177   
      7200   0.95581741     0.1146901     -0.74209734     1.0935045      0.042648484    0.029097408    0.068447772    0.030400273    0.013614559   -0.0061920787  -0.014621516    12.425072      12.425072      12.425072      0              0              0              0.1146901    
      7300   0.98970181     0.11728347    -0.76750943     1.0247373      0.033598174    0.019434032   -0.010813885    0.092174374   -0.00024736107 -0.049660707    0.040217492    12.332808      12.332808      12.332808      0              0              0              0.11728347   
      7400   1.0208043      0.11984061    -0.77373129     1.068992       0.034772609    0.00079851852  0.067040584    0.036478725   -0.047047331   -0.030471161    0.011208525    12.244458      12.244458      12.244458      0              0              0              0.11984061   
      7500   1.0361342      0.12248382    -0.77997327     1.4632318      0.07758513     0.028987345    0.14068186     0.063086189    0.013623116   -0.033069251   -0.063922333    12.155738      12.155738      12.155738      0              0              0              0.12248382   
      7600   1.0696034      0.12511139    -0.82735686     0.70420692    -0.0073723884   0.033145422   -0.089469325    0.034206738    0.011917511    0.017141353    0.042831654    12.070037      12.070037      12.070037      0              0              0              0.12511139   
      7700   1.0545546      0.12776599    -0.82722503     0.98909639     0.028154829    0.014544608    0.01462562     0.055294258    0.0054815182  -0.015750496    0.023521827    11.985858      11.985858      11.985858      0              0              0              0.12776599   
      7800   1.000453       0.13048978    -0.8004232      1.3310037      0.075713838    0.087462413    0.038028811    0.10165029    -0.022140237   -0.02226748     0.023964236    11.901875      11.901875      11.901875      0              0              0              0.13048978   
      7900   1.0135495      0.1331738     -0.88325716     0.39018368    -0.028969152   -0.035636657   -0.039591007   -0.011679792    0.019159224    0.051729813    0.01785593     11.821374      11.821374      11.821374      0              0              0              0.1331738    
      8000   1.0329069      0.13592728    -0.9722412      1.1766374      0.0750399      0.11936443     0.0057002188   0.10005505    -0.021474295    0.016647249    0.0033608342   11.741007      11.741007      11.741007      0              0              0              0.13592728   
      8100   0.95947966     0.1386592     -0.93243431     0.80945747     0.039060092   -0.0089991332   0.062792897    0.063386511   -0.013280026   -0.0044635243   0.0071855105   11.663386      11.663386      11.663386      0              0              0              0.1386592    
      8200   0.94665406     0.14139657    -0.96978233     0.46461158     0.0027652969  -0.025359616    0.094506742   -0.060851235   -0.040375605    0.013083611    0.033815941    11.587629      11.587629      11.587629      0              0              0              0.14139657   
      8300   0.99641487     0.14422067    -1.0937464      0.7362181      0.044946418    0.032421441   -0.024274516    0.12669233     0.031345526    0.049441595   -0.012161677    11.511495      11.511495      11.511495      0              0              0              0.14422067   
      8400   1.0040327      0.14707447    -1.1430713      0.26926425    -0.011523051   -0.055589481   -0.0028016336   0.023821962    0.0086747787   0.012723171    0.0073319633   11.436552      11.436552      11.436552      0              0              0              0.14707447   
      8500   0.98258317     0.14996722    -1.1464308      0.10829798    -0.028872313    0.033278673   -0.0062639661  -0.11363165     0.010160999   -0.0016033746  -0.013001028    11.362541      11.362541      11.362541      0              0              0              0.14996722   
      8600   1.0023292      0.15287505    -1.2140259      0.56519512     0.039364592   -0.021036516    0.057155205    0.081975086    0.0011741655   0.00068950065 -0.002177582    11.290037      11.290037      11.290037      0              0              0              0.15287505   
      8700   1.002235       0.15580064    -1.2532125      0.24421822     0.00022589139  0.046737904    0.0033163601  -0.04937659    -0.035280116   -0.041033821   -0.037614956    11.218922      11.218922      11.218922      0              0              0              0.15580064   
      8800   0.91614819     0.15878094    -1.1527183     -0.035105841   -0.036048865   -0.036540948   -0.044259021   -0.027346625    0.0042509375  -0.019698004    0.0034419748   11.148286      11.148286      11.148286      0              0              0              0.15878094   
      8900   0.96823888     0.16184727    -1.2350205      0.38833295     0.026227629    0.0596243     -0.010125741    0.029184329   -0.044216672    0.020661541    0.0023680735   11.077432      11.077432      11.077432      0              0              0              0.16184727   
      9000   0.93335634     0.16482541    -1.1523818      1.0484385      0.12103969     0.16742283     0.095645456    0.10005078     0.00087238     0.009298988   -0.0086600847   11.010309      11.010309      11.010309      0              0              0              0.16482541   
      9100   0.96975801     0.16766059    -1.1460103     -0.14485165    -0.068010024   -0.040863422   -0.10806013    -0.055106519    0.02959334    -0.018843112   -0.027658649    10.947893      10.947893      10.947893      0              0              0              0.16766059   
      9200   0.99771866     0.17069404    -1.1291103      0.85148471     0.076269188    0.088003278    0.075288057    0.065516228   -0.058024418    0.039374604    0.031525594    10.882653      10.882653      10.882653      0              0              0              0.17069404   
      9300   1.1004032      0.17370398    -1.2309097      0.78915223     0.05964524     0.070145381    0.051255138    0.057535201   -0.05222843     0.0037663518   0.027776361    10.819428      10.819428      10.819428      0              0              0              0.17370398   
      9400   1.0526674      0.17669041    -1.1299483      0.18713697    -0.040802754   -0.10837158    -0.0094292505  -0.0046074355   0.0042341814   0.0365524     -0.025945994    10.758125      10.758125      10.758125      0              0              0              0.17669041   
      9500   1.0476075      0.17985603    -1.1370205      0.39137684    -0.0057483424  -0.011912891   -0.094547321    0.089215186    0.04389657     0.02175796     0.00058214626  10.694633      10.694633      10.694633      0              0              0              0.17985603   
      9600   1.0573537      0.18302567    -1.1887226      0.52233972     0.022123143    0.053340198    0.019844417   -0.0068151853  -0.092787313   -0.027336092   -0.039859186    10.632537      10.632537      10.632537      0              0              0              0.18302567   
      9700   1.0117226      0.1861379     -1.1646116      0.80951788     0.078538939    0.051913638    0.11759172     0.066111462   -0.013868677   -0.024537474    0.0023384709   10.572945      10.572945      10.572945      0              0              0              0.1861379    
      9800   0.98216395     0.18923218    -1.1717108      0.15556367    -0.023844148   -0.013311261    0.092955354   -0.15117654    -0.0058799447   0.010647449    0.0028628943   10.514999      10.514999      10.514999      0              0              0              0.18923218   
      9900   0.97260759     0.19242273    -1.2046064      0.43853093     0.033502639    0.081729603   -0.015219854    0.033998169    0.0099858312   0.0092878544  -0.01973875     10.456558      10.456558      10.456558      0              0              0              0.19242273   
     10000   0.98075389     0.19561964    -1.2517843      0.61033951     0.070840741    0.061316355    0.10457855     0.046627317   -0.047351131   -0.022501539    0.0015399264   10.399283      10.399283      10.399283      0              0              0              0.19561964   
     10100   0.98589053     0.19881817    -1.2867618     -0.15740648    -0.061829974   -0.087335102   -0.094288169   -0.0038666525  -0.026007394    0.0038840855  -0.10565864     10.343215      10.343215      10.343215      0              0              0              0.19881817   
     10200   0.97323946     0.20208214    -1.2827357      0.11683341    -0.0097349968   0.013788947    0.017724393   -0.060718331   -0.036976806    0.028523571    0.012797727    10.287225      10.287225      10.287225      0              0              0              0.20208214   
     10300   0.99295018     0.20540235    -1.3158958      0.48060598     0.058730808    0.079809781    0.14003242    -0.043649777   -0.00058107607 -0.0027065526   0.0097063898   10.231495      10.231495      10.231495      0              0              0              0.20540235   
     10400   0.99252617     0.20865514    -1.3071512      0.40243833     0.043294851    0.049848749    0.0058467154   0.074189089    0.0067041404  -0.04568919     0.013613052    10.178049      10.178049      10.178049      0              0              0              0.20865514   
     10500   0.97254593     0.21186279    -1.2664886      0.065814481   -0.022962406   -0.041265179   -0.0047209408  -0.022901097    0.022952077   -0.075873254    0.0033227305   10.126421      10.126421      10.126421      0              0              0              0.21186279   
     10600   0.96917284     0.21523183    -1.2451143      0.20102668    -6.838657e-05  -0.023335954    0.006179504    0.01695129    -0.032228202    0.10509431    -0.074916854    10.073307      10.073307      10.073307      0              0              0              0.21523183   
     10700   1.0704782      0.21864142    -1.3632483      0.048419506   -0.036974423    0.012739201   -0.062224225   -0.061438245   -0.021052778   -0.036907554   -0.022727717    10.02067       10.02067       10.02067       0              0              0              0.21864142   
     10800   1.0207876      0.22204383    -1.2571522      0.10688844    -0.03219329     0.052883424   -0.0010938809  -0.14836941    -0.091388255   -0.096266162    0.021258995    9.9692232      9.9692232      9.9692232      0              0              0              0.22204383   
     10900   1.0721545      0.22541383    -1.3212818      0.43843194     0.032689738    0.040501885    0.041528326    0.016039004   -0.080346379    0.14613012    -0.0651216      9.9192927      9.9192927      9.9192927      0              0              0              0.22541383   
     11000   1.128145       0.22869773    -1.4225483      0.38091557     0.024888008    0.048722012   -0.022609089    0.048551101    0.0048647205  -0.082683044   -0.041397356    9.8715862      9.8715862      9.8715862      0              0              0              0.22869773   
     11100   1.0749789      0.23193607    -1.3956231      0.74782939     0.11365848     0.093667254    0.15578549     0.091522703    0.022185293   -0.065311585    0.13890584     9.8254277      9.8254277      9.8254277      0              0              0              0.23193607   
     11200   1.0361348      0.23512961    -1.422102      -0.37764653    -0.10729942    -0.11955191    -0.05873688    -0.14360946    -0.045770551    0.046644091    0.041831977    9.7807416      9.7807416      9.7807416      0              0              0              0.23512961   
     11300   1.0127437      0.23871523    -1.4754824      0.33178245     0.064180729    0.11928831     0.056080665    0.017173214   -0.053445373    0.018567316    0.005621102    9.7315239      9.7315239      9.7315239      0              0              0              0.23871523   
     11400   0.97272886     0.24228248    -1.4831486     -0.32395978    -0.064449133   -0.027160116   -0.14673961    -0.019447674    0.055510144    0.022328957    0.026006428    9.6835268      9.6835268      9.6835268      0              0              0              0.24228248   
     11500   0.92501719     0.24589286    -1.4594158     -0.1392998     -0.013517892   -0.077433887    0.052297389   -0.015417177    0.0059137213   0.08193835     0.016238224    9.6358993      9.6358993      9.6358993      0              0              0              0.24589286   
     11600   0.99895021     0.2493751     -1.5939738      0.12253715     0.051139516    0.044717351    0.070140137    0.038561061   -0.042767642   -0.045459026    0.016254508    9.5908375      9.5908375      9.5908375      0              0              0              0.2493751    
     11700   0.95607997     0.25294167    -1.5430822     -0.21156842    -0.021945119   -0.052361325    0.074894732   -0.088368763    0.07663179    -0.025934282   -0.091031834    9.5455458      9.5455458      9.5455458      0              0              0              0.25294167   
     11800   0.94900236     0.25656313    -1.5276355     -0.22121755    -0.025648863    0.014516258   -0.044149047   -0.047313801   -0.031856311    0.036981072   -0.013390308    9.5004202      9.5004202      9.5004202      0              0              0              0.25656313   
     11900   1.0394086      0.26014291    -1.6489923      0.080735922    0.042193042    0.16036267     0.0777582     -0.11154174    -0.021612145   -0.028781347   -0.035880756    9.4566409      9.4566409      9.4566409      0              0              0              0.26014291   
     12000   1.1017823      0.26374895    -1.7483906     -0.015345159    0.021252258    0.021587076   -0.076115957    0.11828565    -0.0028246254  -0.10543013    -0.039986112    9.4133451      9.4133451      9.4133451      0              0              0              0.26374895   
     12100   1.1032966      0.26727194    -1.7905588      0.47782354     0.1510602      0.093227495    0.21063791     0.1493152      0.22656856     0.042481091    0.11464655     9.371802       9.371802       9.371802       0              0              0              0.26727194   
     12200   1.053003       0.27069356    -1.8102628      0.27142999     0.12552451     0.14442499     0.14740902     0.084739517    0.014468665    0.023175486    0.021283575    9.3321473      9.3321473      9.3321473      0              0              0              0.27069356   
     12300   1.0838056      0.27409347    -1.9648054     -0.52991923    -0.045522864    0.0566722     -0.090686297   -0.1025545      0.017195025   -0.01925058    -0.066522358    9.2934008      9.2934008      9.2934008      0              0              0              0.27409347   
     12400   1.050743       0.27756412    -2.0180504     -0.17239236     0.07000269     0.072176615    0.057221923    0.080609531   -0.0027630439   0.018287566    0.0026672192   9.2545034      9.2545034      9.2545034      0              0              0              0.27756412   
     12500   0.94708581     0.28113624    -1.9603418     -0.20430322     0.087538915    0.15422051     0.03298768     0.075408559    0.0099467154  -0.011002259   -0.057734062    9.2151403      9.2151403      9.2151403      0              0              0              0.28113624   
     12600   0.92960522     0.28476352    -1.9930995     -0.98434465    -0.098031392   -0.20320706    -0.021381962   -0.069505153    0.039577412   -0.0777097      0.0063916524   9.1758459      9.1758459      9.1758459      0              0              0              0.28476352   
     12700   0.89048644     0.28867773    -1.9617261     -0.38015593     0.066269697    0.002995702    0.16362833     0.032185059   -0.044162994   -0.056402599    0.10156276     9.134185       9.134185       9.134185       0              0              0              0.28867773   
     12800   0.93889995     0.29257804    -2.029926      -0.92479243    -0.078776531   -0.084063868   -0.032675651   -0.11959007    -0.083913712    0.0076217246   0.00012417965  9.0934145      9.0934145      9.0934145      0              0              0              0.29257804   
     12900   0.96464901     0.29657098    -2.0331019     -0.62844357    -0.0094580141   0.079549928   -0.046579449   -0.06134452     0.078603241   -0.019322384    0.056606133    9.0524196      9.0524196      9.0524196      0              0              0              0.29657098   
     13000   0.97392786     0.30053891    -1.9940432     -0.67027158    -0.035467888   -0.004965963   -0.037784667   -0.063653033   -0.034607228   -0.15103967     0.017053204    9.0124041      9.0124041      9.0124041      0              0              0              0.30053891   
     13100   1.0365111      0.30453809    -2.0367529     -0.16703176     0.089348262    0.126559       0.1341307      0.0073550831   0.17129891     0.042914465    0.057298983    8.97278        8.97278        8.97278        0              0              0              0.30453809   
     13200   1.0760912      0.30834135    -2.067357      -0.40643362     0.015377046   -0.10811058     0.1419837      0.012258019   -0.096610645   -0.071773565    0.019076367    8.9357355      8.9357355      8.9357355      0              0              0              0.30834135   
     13300   1.0841215      0.31214285    -2.0840761     -0.3110119      0.043987407    0.10356677    -0.12433795     0.15273341     0.088849316   -0.078512926    0.10062206     8.8993119      8.8993119      8.8993119      0              0              0              0.31214285   
     13400   1.0518524      0.31604046    -2.0891394     -0.32081646     0.057011759    0.061577909    0.1339664     -0.024509031   -0.011918797   -0.00016030069  0.08310716     8.8625766      8.8625766      8.8625766      0              0              0              0.31604046   
     13500   1.0253954      0.31990598    -2.1383554     -0.78156468    -0.050490467   -0.21179819    -0.00096155159  0.06128834     0.011407314   -0.044760273   -0.086707647    8.8267354      8.8267354      8.8267354      0              0              0              0.31990598   
     13600   0.93973056     0.3239853     -2.1004549     -0.4017616      0.087224335   -0.05234189     0.29264684     0.021368057    0.0068022119  -0.037654554   -0.063940629    8.7895328      8.7895328      8.7895328      0              0              0              0.3239853    
     13700   0.97585099     0.32802119    -2.2069167     -0.99010142    -0.07146159    -0.094694915   -0.026425376   -0.09326448    -0.010430388    0.045131438    0.15188545     8.7533358      8.7533358      8.7533358      0              0              0              0.32802119   
     13800   0.96064134     0.33217627    -2.2173465     -0.86771857    -0.025405221   -0.053377014    0.02183776    -0.044676408   -0.0086777631  -0.02969472     0.099907557    8.7166852      8.7166852      8.7166852      0              0              0              0.33217627   
     13900   0.94585743     0.33627973    -2.2027448     -0.58710482     0.06234863     0.093194407    0.083301211    0.010550273    0.12851916    -0.076170932    0.029788855    8.6810847      8.6810847      8.6810847      0              0              0              0.33627973   
     14000   1.0076473      0.34029625    -2.2825576     -1.1274334     -0.10790158    -0.18176759    -0.043146967   -0.098790191    0.024526731   -0.083447061    0.034333548    8.6467952      8.6467952      8.6467952      0              0              0              0.34029625   
     14100   0.96950411     0.34452728    -2.2076917     -0.82827585    -0.021163052   -0.15008433     0.099301088   -0.012705913    0.044546304    0.12860353     0.11299736     8.6112532      8.6112532      8.6112532      0              0              0              0.34452728   
     14200   1.0011228      0.34871207    -2.2219243     -0.68006457     0.015116355    0.023739384   -0.063298428    0.084908108    0.13439252    -0.0043937635  -0.11192939     8.5766674      8.5766674      8.5766674      0              0              0              0.34871207   
     14300   1.0682837      0.35290355    -2.2809457     -0.46463717     0.0711887      0.080102463    0.056142589    0.077321048   -0.07607167     0.0019953344   0.074526518    8.5425767      8.5425767      8.5425767      0              0              0              0.35290355   
     14400   1.1109411      0.35673479    -2.2990375     -0.51119552     0.042082519    0.04206597     0.025692095    0.058489492   -0.071222807   -0.066186086    0.030543973    8.5118848      8.5118848      8.5118848      0              0              0              0.35673479   
     14500   1.0955765      0.36061852    -2.253086      -0.66757662    -0.016273244   -0.15628169     0.13417593    -0.026713965   -0.021383105   -0.036356139   -0.04952348     8.4812179      8.4812179      8.4812179      0              0              0              0.36061852   
     14600   1.0552479      0.36460141    -2.1995861     -0.5743239      0.01667381     0.076653617    0.17276519    -0.19939738    -0.026052025    0.14784194     0.063837203    8.4502219      8.4502219      8.4502219      0              0              0              0.36460141   
     14700   1.0196718      0.36881161    -2.2069111     -0.90660762    -0.074284241   -0.037266332    0.061669303   -0.2472557      0.153978      -0.18018194    -0.12745817     8.417944       8.417944       8.417944       0              0              0              0.36881161   
     14800   0.93262986     0.37329721    -2.1819478     -0.99134231    -0.06832852    -0.1038065     -0.063577679   -0.037601379   -0.20572104     0.08131744    -0.10443874     8.3840909      8.3840909      8.3840909      0              0              0              0.37329721   
     14900   0.96076515     0.37777755    -2.3075682     -1.4689607     -0.20445817    -0.071504553   -0.31683913    -0.22503082     0.096496375   -0.084735004   -0.13881927     8.3508146      8.3508146      8.3508146      0              0              0              0.37777755   
     15000   0.99920299     0.38239961    -2.4176066     -0.74543594     0.062873506    0.027825401    0.039725816    0.1210693     -0.17320519     0.066317908   -0.10173927     8.3170328      8.3170328      8.3170328      0              0              0              0.38239961   
     15100   0.99226749     0.3866851     -2.4345779     -0.60347954     0.12308506     0.16872984     0.099099904    0.10142545     0.14801831     0.22639471     0.12114861     8.2861937      8.2861937      8.2861937      0              0              0              0.3866851    
     15200   0.98656583     0.39058514    -2.4347142     -1.3794994     -0.1481506     -0.097287657   -0.2850012     -0.062162947    0.10606206    -0.036596374   -0.0070825377   8.2585218      8.2585218      8.2585218      0              0              0              0.39058514   
     15300   0.97915825     0.39482952    -2.4251513     -0.97186239    -0.0029091006   0.068369545    0.027642091   -0.10473894     0.022048789   -0.047841121    0.061818687    8.2288223      8.2288223      8.2288223      0              0              0              0.39482952   
     15400   0.99039817     0.39928676    -2.436234      -1.0536233     -0.034686621   -0.26991712     0.020038118    0.14581914    -0.12874707    -0.24257324     0.013704136    8.1980883      8.1980883      8.1980883      0              0              0              0.39928676   
     15500   1.0123365      0.4038026     -2.4437495     -1.2248577     -0.10719871    -0.14027047    -0.061597835   -0.11972783     0.15234246     0.12085368    -0.043046733    8.1674131      8.1674131      8.1674131      0              0              0              0.4038026    
     15600   1.0387887      0.40834285    -2.42266       -1.3993637     -0.19566891    -0.027297328   -0.26481373    -0.29489568     0.027789985   -0.065262821   -0.01779906     8.1370298      8.1370298      8.1370298      0              0              0              0.40834285   
     15700   1.01543        0.41309145    -2.278665      -1.1191525     -0.13369774    -0.40356819    -0.11282742     0.11530239    -0.14624465     0.13474828     0.026927985    8.1057304      8.1057304      8.1057304      0              0              0              0.41309145   
     15800   1.0354891      0.41796963    -2.2200486     -0.67008058     0.001710108   -0.20701978    -0.14102118     0.35317129     0.16363279    -0.14522084     0.040355938    8.0740726      8.0740726      8.0740726      0              0              0              0.41796963   
     15900   1.1339527      0.42269686    -2.3418307     -0.54867797     0.03870688     0.078829715   -0.053984227    0.091275152   -0.043369426    0.08278542    -0.015108292    8.0438609      8.0438609      8.0438609      0              0              0              0.42269686   
     16000   1.1237928      0.42725611    -2.3557904     -0.68805372    -0.003699295   -0.036551403    0.024214629    0.0012388897  -0.11224        0.12221338     0.15039025     8.0151465      8.0151465      8.0151465      0              0              0              0.42725611   
     16100   1.0944935      0.43169364    -2.3802596     -0.99008507    -0.095505156   -0.0020266607  -0.11600616    -0.16848265     0.038639723   -0.056714923    0.040644986    7.9875884      7.9875884      7.9875884      0              0              0              0.43169364   
     16200   1.0263497      0.43621426    -2.3581091     -0.48128962     0.13680969     0.28713653    -0.0047354194   0.12802796     0.012662323   -0.15764145    -0.0040109318   7.9598999      7.9598999      7.9598999      0              0              0              0.43621426   
     16300   1.0322806      0.44064429    -2.4271724     -1.0230499     -0.054702491   -0.061920154    0.0094294795  -0.1116168      0.077339939    0.088231889   -0.021539194    7.933135       7.933135       7.933135       0              0              0              0.44064429   
     16400   1.0173886      0.44522038    -2.4577805     -1.5393542     -0.2428581     -0.39716592    -0.25700209    -0.074406272   -0.093489047    0.043018217   -0.35133429     7.9058618      7.9058618      7.9058618      0              0              0              0.44522038   
     16500   1.0187515      0.45035221    -2.5128991     -1.0883954     -0.039296433   -0.1327349      0.22875049    -0.21390488    -0.29106876     0.17463223    -0.030593852    7.8757174      7.8757174      7.8757174      0              0              0              0.45035221   
     16600   1.0277052      0.45524548    -2.5652925     -1.382992      -0.1454921     -0.16190728    -0.11867636    -0.15589267     0.16607659    -0.021668736   -0.28134503     7.847398       7.847398       7.847398       0              0              0              0.45524548   
     16700   1.0356135      0.46032968    -2.633205      -0.89477085     0.080675291    0.14599814     0.2471642     -0.15113647    -0.0616262     -0.067632953   -0.18225525     7.8184003      7.8184003      7.8184003      0              0              0              0.46032968   
     16800   1.0556953      0.46486256    -2.7293111     -1.0725959      0.03426883     0.2328498     -0.2582232      0.12817989     0.07363297     0.079758991    0.26480131     7.7929048      7.7929048      7.7929048      0              0              0              0.46486256   
     16900   0.99579407     0.46908631    -2.7069156     -0.74586441     0.20248689     0.40062996     0.080653747    0.12617698     0.16330725    -0.11257863     0.033670061    7.7694446      7.7694446      7.7694446      0              0              0              0.46908631   
     17000   0.96694143     0.47322055    -2.7136826     -1.5028189     -0.099934049    0.21454646    -0.45532842    -0.059020187   -0.21044011    -0.23867996    -0.18248247     7.7467527      7.7467527      7.7467527      0              0              0              0.47322055   
     17100   0.98929568     0.47766947    -2.7717045     -1.6410341     -0.15018513    -0.3101888      0.076348911   -0.21671549    -0.034393641    0.078820692   -0.12511015     7.7226271      7.7226271      7.7226271      0              0              0              0.47766947   
     17200   0.98147886     0.48272519    -2.7731311     -1.2637886      0.019521973    0.31792939    -0.14994792    -0.10941555     0.16000503     0.27778804    -0.048497067    7.695572       7.695572       7.695572       0              0              0              0.48272519   
     17300   0.98305012     0.48790907    -2.77421       -2.6967536     -0.61642693    -0.69541312    -0.78897477    -0.36489289    -0.10765064    -0.095742715    0.10355827     7.6682206      7.6682206      7.6682206      0              0              0              0.48790907   
     17400   0.95262081     0.49379147    -2.727673      -0.96973973     0.15089669     0.1006279      0.17691987     0.1751423      0.0033509041  -0.04781832    -0.29876126     7.6376491      7.6376491      7.6376491      0              0              0              0.49379147   
     17500   1.0333664      0.49900638    -2.8469501     -1.6368379     -0.1506941      0.072777459   -0.3042887     -0.22057105    -0.059233765    0.15783391     0.15830413     7.6109499      7.6109499      7.6109499      0              0              0              0.49900638   
     17600   0.99154445     0.50424287    -2.7766746     -1.5051662     -0.095518127    0.30255609    -0.37867758    -0.21043289     0.075731659   -0.21297177     0.11921185     7.5845119      7.5845119      7.5845119      0              0              0              0.50424287   
     17700   1.0295805      0.50916343    -2.8087639     -1.6629527     -0.18090932    -0.24489648    -0.1054155     -0.19241599     0.20834424     0.038460205   -0.049936716    7.5600005      7.5600005      7.5600005      0              0              0              0.50916343   
     17800   1.0527641      0.51410419    -2.782118      -0.59358891     0.28849596     0.41917886     0.35014618     0.09616284    -0.01033149     0.29285873     0.057058286    7.5357042      7.5357042      7.5357042      0              0              0              0.51410419   
     17900   1.1243609      0.51851739    -2.7978614     -1.1005476      0.0090528795   0.27114973     0.074685937   -0.31867702     0.063687703   -0.014812688   -0.076898487    7.5142641      7.5142641      7.5142641      0              0              0              0.51851739   
     18000   1.1313734      0.52302639    -2.7480461     -1.0121597      0.02249561    -0.15552361     0.37085938    -0.14784894     0.36363624    -0.1767715     -0.12037125     7.4926083      7.4926083      7.4926083      0              0              0              0.52302639   
     18100   1.0968822      0.52770615    -2.7005554     -1.400808      -0.16183754    -0.015825218   -0.4761409      0.0064535046  -0.20565787    -0.29991462    -0.099907182    7.470394       7.470394       7.470394       0              0              0              0.52770615   
     18200   1.0862567      0.53259825    -2.7519675     -1.3025136     -0.083174521   -0.072730067   -0.25226349     0.075469997    0.13986488     0.14529455    -0.13211328     7.4474509      7.4474509      7.4474509      0              0              0              0.53259825   
     18300   1.0901726      0.53761093    -2.8658105     -1.6759012     -0.21366285    -0.016932453   -0.16918608    -0.45487       -0.102758       0.057776061   -0.22367517     7.4242319      7.4242319      7.4242319      0              0              0              0.53761093   
     18400   0.97388605     0.54295357    -2.7852845     -1.0912325      0.11872275     0.16615829     0.26509541    -0.075085451    0.07538621    -0.016340541    0.048086932    7.3998002      7.3998002      7.3998002      0              0              0              0.54295357   
     18500   1.0310417      0.54820553    -2.9193005     -2.7775761     -0.69627351    -1.0533616     -0.42027995    -0.61517895     0.03139772    -0.31539688     0.17737785     7.3760937      7.3760937      7.3760937      0              0              0              0.54820553   
     18600   0.99281026     0.55413713    -2.8883181     -1.4810922     -0.03755211     0.0004379256  -0.19512968     0.082035422    0.16169732     0.16347114     0.01670103     7.3496808      7.3496808      7.3496808      0              0              0              0.55413713   
     18700   1.0119495      0.55972751    -2.9458999     -1.1752363      0.13246664     0.084284582    0.15640115     0.15671419    -0.12883123    -0.2617509     -0.083498837    7.3251301      7.3251301      7.3251301      0              0              0              0.55972751   
     18800   1.0302423      0.56478892    -3.0059483     -1.7724328     -0.15614932    -0.079105374   -0.08093055    -0.30841203     0.0054652743   0.11472001     0.012145321    7.3031828      7.3031828      7.3031828      0              0              0              0.56478892   
     18900   1.0208382      0.56974363    -3.0444174     -1.9416142     -0.21795169    -0.61899599    -0.18501903     0.15015994    -0.1074919      0.1974267      0.029845843    7.2819507      7.2819507      7.2819507      0              0              0              0.56974363   
     19000   0.95746408     0.57491685    -3.0170669     -1.5113964      0.040064042   -0.12230227    -0.20397251     0.4464669      0.0033250451  -0.016111095   -0.28678353     7.2600434      7.2600434      7.2600434      0              0              0              0.57491685   
     19100   0.99078633     0.58033399    -3.1223832     -2.1679691     -0.27662649    -0.25171498    -0.35663715    -0.22152734    -0.25333648     0.029755346    0.25615098     7.237383       7.237383       7.237383       0              0              0              0.58033399   
     19200   0.92863957     0.58607727    -3.0575809     -2.468933      -0.42482433    -0.48071839    -0.2900938     -0.5036608     -0.36320253     0.30721604    -0.15009804     7.2136644      7.2136644      7.2136644      0              0              0              0.58607727   
     19300   1.0131715      0.59214843    -3.1878793     -2.1532613     -0.25706803    -0.23473102    -0.27988443    -0.25658864    -0.26810074    -0.0068148074   0.098003652    7.1889263      7.1889263      7.1889263      0              0              0              0.59214843   
     19400   1.0252633      0.59807281    -3.1909819     -1.3663136      0.16010018     0.28462881    -0.10923581     0.30490755     0.12907165    -0.36088247     0.0086693852   7.1651102      7.1651102      7.1651102      0              0              0              0.59807281   
     19500   1.0222435      0.60329404    -3.1578196     -1.6910664     -0.032328496   -0.22179809     0.093419118    0.03139348     0.075175042   -0.030708571   -0.070624662    7.14438        7.14438        7.14438        0              0              0              0.60329404   
     19600   1.086347       0.60832728    -3.2137923     -1.9174977     -0.17977632    -0.59829215    -0.25367495     0.31263813    -0.12557851    -0.046834373   -0.20604274     7.1246215      7.1246215      7.1246215      0              0              0              0.60832728   
     19700   1.1011343      0.61343314    -3.2056827     -0.61231633     0.52974048     0.24247152     0.47115522     0.87559471     0.054242859    0.19699117     0.2435374      7.1047993      7.1047993      7.1047993      0              0              0              0.61343314   
     19800   1.1472429      0.61731229    -3.2875072     -1.8671266     -0.16380064    -0.13028151    -0.43882797     0.077707547    0.0056215381  -0.12773746    -0.37548576     7.089886       7.089886       7.089886       0              0              0              0.61731229   
     19900   1.074294       0.62133326    -3.2410161     -1.2846148      0.1994014      0.27190077     0.13576731     0.19053612     0.094837672    0.15606512     0.0060825626   7.0745588      7.0745588      7.0745588      0              0              0              0.62133326   
     20000   0.99760064     0.62554905    -3.2211723     -1.5765007      0.088573531   -0.34033381     0.40854173     0.19751268     0.41323434     0.18125941    -0.096666372    7.0586303      7.0586303      7.0586303      0              0              0              0.62554905   
     20100   1.0021037      0.63052725    -3.3119533     -2.2398843     -0.24279355    -0.41621279     0.21403473    -0.52620258     0.25021105    -0.30624172    -0.16528728     7.0400045      7.0400045      7.0400045      0              0              0              0.63052725   
     20200   0.95770589     0.63612169    -3.3060133     -2.4364993     -0.32376395    -0.17409146    -0.4648694     -0.332331      -0.15864025     0.11657212     0.061780255    7.0193057      7.0193057      7.0193057      0              0              0              0.63612169   
     20300   1.0069323      0.64210717    -3.4170748     -2.4106778     -0.28979436     0.028952118   -0.42925461    -0.46908058    -0.15450843    -0.030779374   -0.1437854      6.9974272      6.9974272      6.9974272      0              0              0              0.64210717   
     20400   0.96788046     0.64848389    -3.381531      -1.9799557     -0.025341769   -0.15374365     0.12492144    -0.04720309     0.26065676     0.16444836    -0.0089236943   6.9744157      6.9744157      6.9744157      0              0              0              0.64848389   
     20500   0.91539577     0.65406172    -3.3031857     -1.9813628     -0.026403432   -0.48881833     0.18249435     0.22711368    -0.24757681    -0.25576902     0.56477617     6.9545332      6.9545332      6.9545332      0              0              0              0.65406172   
     20600   0.99069047     0.65926376    -3.3915328     -1.8308061      0.049217717   -0.16824559     0.1859458      0.12995294    -0.11278417    -0.051460084    0.10114296     6.9361928      6.9361928      6.9361928      0              0              0              0.65926376   
     20700   1.0888116      0.66504208    -3.5102509     -2.8100677     -0.5591602     -0.62096394    -0.80797073    -0.24854593     0.41403587    -0.44399306    -0.15593706     6.9160456      6.9160456      6.9160456      0              0              0              0.66504208   
     20800   1.0534836      0.6712947     -3.4333938     -2.0820116     -0.13483379     0.042140204   -0.064438857   -0.38220272    -0.28991126     0.34177192     0.01009752     6.894506       6.894506       6.894506       0              0              0              0.6712947    
     20900   1.0529371      0.67693054    -3.4315958     -1.0555489      0.4951059      0.524841       0.41624528     0.54423141    -0.11657954    -0.020294058   -0.028257336    6.8753191      6.8753191      6.8753191      0              0              0              0.67693054   
     21000   1.089652       0.68143106    -3.5291978     -1.4306524      0.29254435    -0.034768211    0.50739733     0.40500395     0.089288761    0.13449571     0.0023640937   6.8601496      6.8601496      6.8601496      0              0              0              0.68143106   
     21100   1.0355093      0.68542285    -3.5495552     -1.5743853      0.26773377     0.059442593    0.83880422    -0.095045511   -0.53527866    -0.071083144    0.23725662     6.8468062      6.8468062      6.8468062      0              0              0              0.68542285   
     21200   0.97140741     0.6897578     -3.5695468     -2.607571      -0.30590744    -0.42642171    -0.57059147     0.079290855    0.050177442    0.0026980402  -0.35289656     6.8324325      6.8324325      6.8324325      0              0              0              0.6897578    
     21300   0.91487217     0.69565368    -3.5578152     -1.7532942      0.277676       0.11428213     0.36063832     0.35810755    -0.12658972     0.37750216     0.010727067    6.8130754      6.8130754      6.8130754      0              0              0              0.69565368   
     21400   1.0343251      0.7019492     -3.7845213     -3.0629019     -0.52461819    -0.33686175    -0.66400632    -0.57298649    -0.03774493    -0.29059275    -0.23439777     6.7926463      6.7926463      6.7926463      0              0              0              0.7019492    
     21500   0.95590338     0.70837861    -3.6998993     -2.0661108      0.13337009     0.35494021     0.15358543    -0.10841536    -0.17114799     0.063231392   -0.013471446    6.7720332      6.7720332      6.7720332      0              0              0              0.70837861   
     21600   0.98612295     0.71395337    -3.7662643     -2.0895159      0.13302889     0.59823967    -0.40414191     0.2049889     -0.064408434   -0.046174011    0.063906168    6.7543611      6.7543611      6.7543611      0              0              0              0.71395337   
     21700   0.97603452     0.71946457    -3.7621006     -2.418571      -0.074040675    0.24521906    -0.2381418     -0.22919928    -0.08370721     0.047914028    0.22700363     6.7370705      6.7370705      6.7370705      0              0              0              0.71946457   
     21800   1.0318198      0.72516228    -3.8465163     -2.9348648     -0.41422558    -0.7245166     -0.13387484    -0.38428529    -0.17563677     0.45820408     0.11086435     6.7193793      6.7193793      6.7193793      0              0              0              0.72516228   
     21900   0.99981415     0.73098993    -3.79358       -2.037676       0.17522585     0.096308658   -0.28894754     0.71831643    -0.26678288     0.10743586    -0.30230938     6.7014754      6.7014754      6.7014754      0              0              0              0.73098993   
     22000   1.033256       0.73594601    -3.8461843     -1.9097287      0.26381721     0.068013058    0.51729946     0.20613913     0.1040363      0.0509362      0.29335732     6.6863983      6.6863983      6.6863983      0              0              0              0.73594601   
     22100   1.0299394      0.74082821    -3.8762947     -2.6804554     -0.22988926    -0.37828273    -0.15655388    -0.15483115     0.04113569    -0.03525615    -0.12151911     6.6716777      6.6716777      6.6716777      0              0              0              0.74082821   
     22200   0.97342929     0.74649636    -3.8641456     -2.0494776      0.24554626     0.23753633     0.47131871     0.027783744    0.30619386     0.10308676    -0.072182065    6.6547487      6.6547487      6.6547487      0              0              0              0.74649636   
     22300   0.95227724     0.75112572    -3.9082171     -2.5890312     -0.069709828    0.25427487     0.10616252    -0.56956687    -0.38885923     0.64114065     0.31648841     6.641049       6.641049       6.641049       0              0              0              0.75112572   
     22400   0.93735015     0.75595717    -3.9419998     -2.133037       0.28174368    -0.39097097     1.0793537      0.15684836     0.032208928    0.25892095    -0.11350604     6.6268707      6.6268707      6.6268707      0              0              0              0.75595717   
     22500   0.91376703     0.76087388    -3.9321486     -2.4892409      0.054720972   -0.12975858     0.53887218    -0.24495068     0.1729184     -0.10248342    -0.27072203     6.6125657      6.6125657      6.6125657      0              0              0              0.76087388   
     22600   1.0198255      0.76627711    -4.0957332     -2.7781654     -0.14247301    -0.04025695     0.16364484    -0.55080693     0.010355611   -0.1407176     -0.099062889    6.5969867      6.5969867      6.5969867      0              0              0              0.76627711   
     22700   0.99466702     0.77224261    -4.0504536     -2.4060286      0.11224512    -0.11405699     0.4315063      0.019286065   -0.38335588     0.0031628091  -0.25705563     6.5799558      6.5799558      6.5799558      0              0              0              0.77224261   
     22800   1.0020214      0.77735154    -4.0485452     -2.2407931      0.22065129    -0.18594068     0.5202944      0.32760015    -0.45366593     0.24365002    -0.3721528      6.5655091      6.5655091      6.5655091      0              0              0              0.77735154   
     22900   1.1149508      0.78151072    -4.1929744     -2.3707786      0.11234686    -0.53709363     0.30638113     0.56775308    -0.2295354      0.030199471   -0.47687        6.5538412      6.5538412      6.5538412      0              0              0              0.78151072   
     23000   1.0907968      0.78510268    -4.1443684     -2.0143889      0.35826749     0.021906561    0.66612277     0.38677314     0.16000799     0.1568795      0.24385518     6.543831       6.543831       6.543831       0              0              0              0.78510268   
     23100   1.1147235      0.78839489    -4.1935989     -1.7934229      0.5278312      0.74685731     0.27800029     0.558636       0.10468971    -0.30401562     0.10970435     6.5347096      6.5347096      6.5347096      0              0              0              0.78839489   
     23200   1.0417227      0.79214258    -4.1603379     -2.7040822     -0.070943826   -0.057287084    0.034022045   -0.18956644    -0.44033736    -0.44115504     0.13917119     6.5243879      6.5243879      6.5243879      0              0              0              0.79214258   
     23300   0.97110825     0.79650963    -4.160247      -1.7446308      0.69965197     1.1150394      0.56663687     0.41727964     0.025572476   -0.39415519    -0.06467355     6.5124422      6.5124422      6.5124422      0              0              0              0.79650963   
     23400   0.97008626     0.80043365    -4.231781      -2.2891677      0.36002016     0.31636752     0.18651222     0.57718074    -0.062564656    0.081567131   -0.19349687     6.5017827      6.5017827      6.5017827      0              0              0              0.80043365   
     23500   0.94979535     0.80469421    -4.2406578     -2.5640726      0.18948039    -0.17225623    -0.089253811    0.8299512     -0.48799794    -0.20114774    -0.059118187    6.4902875      6.4902875      6.4902875      0              0              0              0.80469421   
     23600   1.0635313      0.8092542     -4.4242333     -2.4449449      0.28836513     0.30019591     0.38191523     0.18298425    -0.13876124    -0.13909154    -0.0097640091   6.478074       6.478074       6.478074       0              0              0              0.8092542    
     23700   0.94161241     0.81309234    -4.2543203     -1.4140413      1.0606586      0.84090524     0.87834161     1.4627291     -0.21444274     0.053456379   -0.61935692     6.4678649      6.4678649      6.4678649      0              0              0              0.81309234   
     23800   0.99771014     0.8156868     -4.3430603     -2.4617293      0.29086551    -0.0028421204   0.89154635    -0.016107696    0.48256453     0.087825098   -0.1455078      6.4610001      6.4610001      6.4610001      0              0              0              0.8156868    
     23900   0.96295987     0.8188341     -4.2983289     -1.8260589      0.77048749     1.1212534      1.2017884     -0.011579322    0.34206017     0.052576817   -0.2221444      6.4527116      6.4527116      6.4527116      0              0              0              0.8188341    
     24000   0.94993388     0.82163485    -4.286623      -1.8046692      0.79487757    -0.044400227    1.4854156      0.9436173     -0.37750175    -0.11291635     0.19289479     6.4453713      6.4453713      6.4453713      0              0              0              0.82163485   
     24100   1.043377       0.82428567    -4.4231267     -2.6642479      0.15109797    -0.010025366    0.30442869     0.15889058    -0.12854038     0.10054339    -0.23287094     6.4384547      6.4384547      6.4384547      0              0              0              0.82428567   
     24200   1.0554238      0.82698144    -4.4368795     -2.4272588      0.326583       0.20809822     0.53988492     0.23176585    -0.11100176     0.40177623     0.22438942     6.4314511      6.4314511      6.4314511      0              0              0              0.82698144   
     24300   0.97724353     0.82929974    -4.3290549     -0.80733429     1.5554531      1.96813        1.6190557      1.0791738      0.52758244    -0.24417749     0.21513201     6.4254525      6.4254525      6.4254525      0              0              0              0.82929974   
     24400   0.99369738     0.83081326    -4.3750727     -2.6629856      0.17295548     0.26624081    -0.070197876    0.32282352    -0.21913024    -0.54244646    -0.60205605     6.4215483      6.4215483      6.4215483      0              0              0              0.83081326   
     24500   1.0361162      0.83343536    -4.4806059     -2.6458498      0.21847574    -0.032894588    0.27154288     0.41677894     0.10640803     0.18188574    -0.37214635     6.4148069      6.4148069      6.4148069      0              0              0              0.83343536   
     24600   1.0160489      0.83618121    -4.5042405     -2.0266205      0.73064531     0.13986839     0.92857315     1.1234944     -0.63331463    -0.3054934      0.26839148     6.4077775      6.4077775      6.4077775      0              0              0              0.83618121   
     24700   0.94732469     0.8385085     -4.451314      -1.9754518      0.80952665     0.74827053     0.68531548     0.99499393     0.48706939    -0.15105584    -0.22031516     6.4018438      6.4018438      6.4018438      0              0              0              0.8385085    
     24800   0.89229459     0.84016746    -4.3934571     -1.8613959      0.91678427     1.1010918      0.97525102     0.67400996    -0.06934928     0.28097146     0.01367111     6.3976274      6.3976274      6.3976274      0              0              0              0.84016746   
     24900   0.91197781     0.84148171    -4.4265487     -1.9339826      0.86553227     1.169019       0.5896966      0.83788124    -0.33538042    -0.022847674   -0.098440299    6.394295       6.394295       6.394295       0              0              0              0.84148171   
     25000   1.0196312      0.84280272    -4.5625972     -2.5881036      0.34684705    -0.19925378     0.23666523     1.0031297      0.096586172   -0.043966682   -0.11840697     6.3909524      6.3909524      6.3909524      0              0              0              0.84280272   
     25100   0.98457646     0.84453886    -4.4545868     -1.9607725      0.78644531     0.74547807     0.70165319     0.91220469     0.075864186    0.24304983     0.15706377     6.3865701      6.3865701      6.3865701      0              0              0              0.84453886   
     25200   1.0612415      0.84626478    -4.4717414     -1.233494       1.2727395      1.2360764      1.2427786      1.3393636      0.10278377    -0.01176949     0.55852026     6.3822254      6.3822254      6.3822254      0              0              0              0.84626478   
     25300   1.0645827      0.84674015    -4.4053626     -1.0709757      1.3436205      1.1408058      1.5201212      1.3699347     -0.16877564     0.24868123    -0.46071327     6.3810308      6.3810308      6.3810308      0              0              0              0.84674015   
     25400   1.0657495      0.84562194    -4.3888894     -0.57267554     1.7109106      1.5761756      1.0480587      2.5084973      0.20196346    -0.082280127   -0.099468836    6.3838422      6.3838422      6.3838422      0              0              0              0.84562194   
     25500   1.1019022      0.84369321    -4.4674488     -1.4475915      1.0548222      1.0203439      0.98766421     1.1564586      0.15365455    -0.36352325     0.1574026      6.3887031      6.3887031      6.3887031      0              0              0              0.84369321   
     25600   1.073615       0.8428608     -4.4891976     -2.0920084      0.6090196      0.23765377     0.67877899     0.91062605     0.16446626    -0.10520005    -0.55487773     6.3908056      6.3908056      6.3908056      0              0              0              0.8428608    
     25700   0.95733868     0.84332806    -4.3850397     -1.2121343      1.3371177      0.45226979     2.2549127      1.3041705      0.093570395   -0.33042901    -0.60366791     6.3896251      6.3896251      6.3896251      0              0              0              0.84332806   
     25800   0.98878074     0.8434829     -4.4766848     -2.3904356      0.46812841    -0.24575777     0.50717859     1.1429644     -0.2834828     -0.049857072    0.39904365     6.3892341      6.3892341      6.3892341      0              0              0              0.8434829    
     25900   0.96576016     0.84471538    -4.4619543     -2.321372       0.53692049     0.2516779      0.32627165     1.0328119     -0.074075904   -0.11808918    -0.23132554     6.3861252      6.3861252      6.3861252      0              0              0              0.84471538   
     26000   0.98388397     0.84593555    -4.4889076     -1.9693642      0.80832727     1.0678321      1.1144203      0.24272948    -0.27836632     0.41492362    -0.1053905      6.3830533      6.3830533      6.3830533      0              0              0              0.84593555   
     26100   0.9470744      0.84687851    -4.4243206     -2.2048224      0.62052305     0.56536406     1.0739613      0.22224376     0.20069528     0.1250247      0.38849217     6.3806833      6.3806833      6.3806833      0              0              0              0.84687851   
     26200   0.99246778     0.84829233    -4.4722155     -1.4768101      1.1676723      0.68288839     2.1426059      0.67752267    -0.27160927     0.033469642    0.18491432     6.3771365      6.3771365      6.3771365      0              0              0              0.84829233   
     26300   0.97603125     0.84829406    -4.428632      -1.0805573      1.458563       1.6028398      1.0753453      1.6975039      0.035959706   -0.25977411     0.061180668    6.3771322      6.3771322      6.3771322      0              0              0              0.84829406   
     26400   0.98765172     0.84710053    -4.4132536     -1.4553371      1.1426973      0.72453678     1.3099409      1.3936142      0.2631364     -0.042241903    0.08779837     6.3801258      6.3801258      6.3801258      0              0              0              0.84710053   
     26500   1.0154893      0.84657409    -4.415224      -1.6160765      0.98782095     0.98618916     0.52912154     1.4481522      0.10869884    -0.18490195    -0.29872695     6.381448       6.381448       6.381448       0              0              0              0.84657409   
     26600   0.99259852     0.84664052    -4.3452849     -1.3249309      1.1844506      1.1227953      1.3406263      1.0899303     -0.63555309     0.28688588    -0.14124831     6.3812811      6.3812811      6.3812811      0              0              0              0.84664052   
     26700   1.0441443      0.84628231    -4.3882496     -1.1892338      1.262215       0.78849806     1.8527288      1.1454181     -0.078061096    0.25743564     0.24208056     6.3821813      6.3821813      6.3821813      0              0              0              0.84628231   
     26800   1.0774941      0.84560064    -4.4060783     -0.93553624     1.4316649      1.5624857      1.755067       0.97744215     0.27223843     0.20873698     0.15444388     6.3838958      6.3838958      6.3838958      0              0              0              0.84560064   
     26900   1.0297254      0.84458353    -4.3229403     -1.3722757      1.0855199      1.3905051      0.97181645     0.89423805    -0.090243974   -0.25159714     0.38986576     6.3864575      6.3864575      6.3864575      0              0              0              0.84458353   
     27000   0.99436898     0.8433641     -4.2904513     -0.5988984      1.6924456      2.0145436      1.7187329      1.3440603     -0.19894176    -0.021366039   -0.37952566     6.3895341      6.3895341      6.3895341      0              0              0              0.8433641    
     27100   1.0764352      0.84121317    -4.4641278     -1.4625978      1.0667733      0.97103358     0.98884734     1.2404391      0.16592578     0.010393152   -0.10773122     6.3949753      6.3949753      6.3949753      0              0              0              0.84121317   
     27200   1.0215442      0.83951826    -4.4637728     -1.8042039      0.86616472     0.49746705     1.094082       1.0069451     -0.25033696     0.21411499    -0.49011858     6.3992761      6.3992761      6.3992761      0              0              0              0.83951826   
     27300   0.9387244      0.83905376    -4.4203665     -2.0561765      0.73466308     0.71854466     0.82284533     0.66259924    -0.19002515     0.79466587     0.34057874     6.4004567      6.4004567      6.4004567      0              0              0              0.83905376   
     27400   0.92156304     0.83989066    -4.4327528     -1.2807025      1.3565131      1.3150957      0.88588699     1.8685565     -0.18244857    -0.65330114    -0.3212285      6.3983301      6.3983301      6.3983301      0              0              0              0.83989066   
     27500   0.92730951     0.84045488    -4.4483937     -1.9696801      0.83640858     0.7371275      0.96545819     0.80664004     0.14839857    -0.6175072      0.15242837     6.396898       6.396898       6.396898       0              0              0              0.84045488   
     27600   0.9768852      0.84133781    -4.5125153     -1.7255452      1.0164653      0.97002256     1.0384968      1.0408764     -0.041643856    0.3086211      0.098622261    6.3946595      6.3946595      6.3946595      0              0              0              0.84133781   
[...]
    136000   0.096826495    0.27400205    -3.8941177     -6.8469018     -0.77151445    -1.5664504     -0.38593285    -0.36216008     0.030753291    0.10194343    -0.0070589577   23.013532      5.9066711      5.9066711      0              0              0              0.27400205   
    137000   0.094355347    0.27127568    -3.8519684     -6.8225519     -0.76731781    -1.5513904     -0.35041472    -0.40014832     0.024350021    0.056625427    0.025051321    23.244822      5.9066711      5.9066711      0              0              0              0.27127568   
    138000   0.098745029    0.26857645    -3.7948645     -6.7996762     -0.76963965    -1.6368232     -0.32429968    -0.3477961      0.038264673    0.082676432    0.0086938047   23.478437      5.9066711      5.9066711      0              0              0              0.26857645   
    139000   0.100023       0.26590407    -3.7189531     -7.0206589     -0.83421119    -1.7681066     -0.36736701    -0.36715999     0.057793961    0.071541027    0.022396949    23.714399      5.9066711      5.9066711      0              0              0              0.26590407   
    140000   0.10572375     0.26325828    -3.7199679     -6.9032528     -0.79960576    -1.6834769     -0.36777088    -0.34756947    -0.038092152    0.12841308     0.056263697    23.952733      5.9066711      5.9066711      0              0              0              0.26325828   
    141000   0.10896827     0.26063881    -3.7042183     -7.0722611     -0.83657427    -1.7453548     -0.39021568    -0.37415235    -0.020091881    0.11810009    -0.02077868     24.193462      5.9066711      5.9066711      0              0              0              0.26063881   
    142000   0.10372534     0.25804541    -3.6841033     -7.1859442     -0.85780185    -1.7727007     -0.38028839    -0.42041648    -0.013353266    0.14770165     0.019692474    24.43661       5.9066711      5.9066711      0              0              0              0.25804541   
    143000   0.090894712    0.25547782    -3.6375741     -6.8274513     -0.77236461    -1.6975796     -0.27492189    -0.34459231    -0.063724593    0.1902086      0.024887331    24.682202      5.9066711      5.9066711      0              0              0              0.25547782   
    144000   0.095312939    0.25293577    -3.6002921     -7.1833364     -0.85660122    -1.8621649     -0.2684217     -0.43921705     0.010137523    0.17998017     0.017018425    24.930262      5.9066711      5.9066711      0              0              0              0.25293577   
    145000   0.10824566     0.25041902    -3.5715885     -6.7075391     -0.75068959    -1.6575337     -0.29478904    -0.299746       0.01073714     0.12478977     0.01215624     25.180815      5.9066711      5.9066711      0              0              0              0.25041902   
    146000   0.10616065     0.24792731    -3.5998024     -6.6529218     -0.72384949    -1.527666      -0.30202129    -0.3418612     -0.024699507    0.11684074    -0.0046505709   25.433887      5.9066711      5.9066711      0              0              0              0.24792731   
    147000   0.10156405     0.24546039    -3.5989976     -6.5670973     -0.69614441    -1.5595922     -0.32954047    -0.19930056     0.056785819    0.071334764   -0.049547026    25.689502      5.9066711      5.9066711      0              0              0              0.24546039   
    148000   0.11691506     0.24301802    -3.5292986     -6.6755446     -0.73363644    -1.5984594     -0.26529379    -0.33715614     0.020885866    0.095729104   -0.044478882    25.947685      5.9066711      5.9066711      0              0              0              0.24301802   
    149000   0.12084505     0.24059995    -3.5547824     -5.999671      -0.57421363    -1.3251383     -0.17634197    -0.22116067     0.052558801    0.023770781   -0.040345137    26.208464      5.9066711      5.9066711      0              0              0              0.24059995   
    150000   0.09487252     0.23820594    -3.5834109     -6.1878521     -0.59465696    -1.4154396     -0.17844814    -0.1900831      0.055368476    0.065729586   -0.051002047    26.471863      5.9066711      5.9066711      0              0              0              0.23820594   
    151000   0.10845377     0.23583575    -3.5276703     -6.3764027     -0.64546094    -1.5148695     -0.2130616     -0.20845171    -0.0061179568  -0.019228566    0.0070999877   26.73791       5.9066711      5.9066711      0              0              0              0.23583575   
    152000   0.085785235    0.23348915    -3.4530512     -7.0940534     -0.8000265     -1.7941278     -0.27921311    -0.32673856    -0.0093694182  -0.034305121    0.0059122833   27.006631      5.9066711      5.9066711      0              0              0              0.23348915   
    153000   0.088312528    0.23116589    -3.3844228     -6.8251076     -0.75076193    -1.7951286     -0.20583279    -0.25132436     0.032574263   -0.016385137   -0.015964713    27.278052      5.9066711      5.9066711      0              0              0              0.23116589   
    154000   0.10419994     0.22886575    -3.3051958     -6.9878322     -0.79856562    -1.9567619     -0.22501046    -0.21392447    -0.0048631363   0.01041109     0.027539475    27.552201      5.9066711      5.9066711      0              0              0              0.22886575   
    155000   0.098060314    0.2265885     -3.2139618     -6.9649204     -0.80280587    -2.0272915     -0.20709247    -0.17403369     0.06921667     0.0038190729  -0.012439208    27.829105      5.9066711      5.9066711      0              0              0              0.2265885    
    156000   0.11590249     0.22433391    -3.5718676     -6.0401682     -0.53866346    -1.0649341     -0.26547354    -0.28558276     0.014195799   -0.053517857   -0.010180207    28.108792      5.9066711      5.9066711      0              0              0              0.22433391   
    157000   0.10584226     0.22210175    -3.6548629     -5.8825756     -0.48169473    -1.0209772     -0.19551936    -0.22858761     0.04682114    -0.085000242   -0.015041815    28.39129       5.9066711      5.9066711      0              0              0              0.22210175   
    158000   0.10141178     0.2198918     -3.6603815     -5.9487787     -0.48771087    -0.88761459    -0.2636515     -0.31186653     0.076628673   -0.070566518   -0.034252539    28.676627      5.9066711      5.9066711      0              0              0              0.2198918    
    159000   0.098449921    0.21770384    -3.6290636     -6.0931873     -0.51676166    -0.96167418    -0.29635056    -0.29226024     0.00073360243 -0.050073029   -0.010763478    28.964832      5.9066711      5.9066711      0              0              0              0.21770384   
    160000   0.10357094     0.21553765    -3.6398712     -5.7401591     -0.44182623    -0.87237195    -0.21614958    -0.23695716    -0.014138997   -0.059735703    0.016736163    29.255934      5.9066711      5.9066711      0              0              0              0.21553765   
    161000   0.099924576    0.21339301    -3.6563305     -5.6730096     -0.42015465    -0.70496799    -0.27332368    -0.2821723      0.039762856   -0.071522491   -0.016602396    29.549961      5.9066711      5.9066711      0              0              0              0.21339301   
    162000   0.10176047     0.21126972    -3.6620703     -5.4555783     -0.3736373     -0.75913794    -0.14492103    -0.21685294     0.019664581   -0.077850207    0.020048318    29.846943      5.9066711      5.9066711      0              0              0              0.21126972   
    163000   0.10593851     0.20916755    -3.6232878     -5.465286      -0.38032583    -0.74763484    -0.20050676    -0.19283588    -0.0012119288  -0.074681659    0.0263153      30.146909      5.9066711      5.9066711      0              0              0              0.20916755   
    164000   0.098266693    0.20708629    -3.6467509     -5.6751552     -0.40947876    -0.79356833    -0.20753659    -0.22733136     0.032222058   -0.043377207    0.025505133    30.449891      5.9066711      5.9066711      0              0              0              0.20708629   
    165000   0.1047727      0.20502575    -3.6654131     -5.520277      -0.37486856    -0.71901719    -0.17409609    -0.2314924      0.030858414   -0.078907771    0.050813521    30.755917      5.9066711      5.9066711      0              0              0              0.20502575   
    166000   0.094975153    0.20298571    -3.6255868     -5.6235449     -0.39484568    -0.73189863    -0.2041138     -0.2485246     -0.0041617867  -0.070645326    0.034083968    31.06502       5.9066711      5.9066711      0              0              0              0.20298571   
    167000   0.091457721    0.20096597    -3.6147433     -5.3500394     -0.34197041    -0.65104643    -0.13206056    -0.24280424     0.035242805   -0.067672281    0.049523088    31.377228      5.9066711      5.9066711      0              0              0              0.20096597   
    168000   0.10674384     0.19896633    -3.6194369     -5.4196359     -0.35443394    -0.64995505    -0.19597262    -0.21737415    -0.013247959   -0.045154381    0.023292095    31.692575      5.9066711      5.9066711      0              0              0              0.19896633   
    169000   0.099801102    0.19698658    -3.5865508     -5.3723821     -0.34647868    -0.67610808    -0.13492713    -0.22840084     0.039541834   -0.019574008    0.0024608183   32.01109       5.9066711      5.9066711      0              0              0              0.19698658   
    170000   0.089530625    0.19502653    -3.5588255     -5.7094536     -0.40499076    -0.84792307    -0.15537972    -0.21166948     3.7152476e-05 -0.05434772     0.031155072    32.332807      5.9066711      5.9066711      0              0              0              0.19502653   
    171000   0.10554193     0.19308598    -3.5246928     -5.8778466     -0.44070562    -0.89012369    -0.17992751    -0.25206566     0.0086493676  -0.053745331    0.024667637    32.657757      5.9066711      5.9066711      0              0              0              0.19308598   
    172000   0.096092007    0.19116474    -3.4801934     -5.9241101     -0.44964278    -1.0105422     -0.11809206    -0.22029405    -0.0092708614  -0.1012888      0.021586055    32.985973      5.9066711      5.9066711      0              0              0              0.19116474   
    173000   0.10153912     0.18926262    -3.5031296     -5.7004792     -0.40414397    -0.86325402    -0.15082531    -0.19835258     0.010132843   -0.036506557    0.042374107    33.317488      5.9066711      5.9066711      0              0              0              0.18926262   
    174000   0.10279506     0.18737943    -3.5194664     -5.9204984     -0.43513824    -0.87725571    -0.18051446    -0.24764455     0.024380048   -0.034305251    0.026021379    33.652334      5.9066711      5.9066711      0              0              0              0.18737943   
    175000   0.091547347    0.18551497    -3.4726651     -5.9131213     -0.43462627    -0.86938216    -0.19374692    -0.24074971     0.041590024   -0.072706171    0.031081136    33.990545      5.9066711      5.9066711      0              0              0              0.18551497   
    176000   0.1040928      0.18366907    -3.4366045     -5.9663532     -0.44833739    -0.98499018    -0.13339695    -0.22662506     0.00085753503 -0.060873521    0.013455025    34.332156      5.9066711      5.9066711      0              0              0              0.18366907   
    177000   0.10263734     0.18184153    -3.4108552     -5.7076457     -0.40500684    -0.92029778    -0.11145964    -0.18326311    -0.0079051183  -0.092266631   -0.0051425292   34.6772        5.9066711      5.9066711      0              0              0              0.18184153   
    178000   0.10962253     0.18003218    -3.3697427     -5.9249208     -0.44497238    -0.97531903    -0.15608374    -0.20351437     0.02721039    -0.068169725    0.011169246    35.025712      5.9066711      5.9066711      0              0              0              0.18003218   
    179000   0.11275482     0.17824083    -3.3166085     -6.181655      -0.49151254    -1.0426918     -0.20845908    -0.22338676     0.027555718   -0.089800834   -0.0015777988   35.377726      5.9066711      5.9066711      0              0              0              0.17824083   
    180000   0.10468218     0.1764673     -3.2714883     -6.2413108     -0.50149771    -1.104212      -0.20148066    -0.19880045     0.018902572   -0.036558372   -0.014435444    35.733278      5.9066711      5.9066711      0              0              0              0.1764673    
    181000   0.10049232     0.17471142    -3.2451133     -6.1206026     -0.4805317     -1.0451835     -0.15919234    -0.23721927     0.022057284   -0.076211295    0.0046974525   36.092403      5.9066711      5.9066711      0              0              0              0.17471142   
    182000   0.097399626    0.17297301    -3.2099908     -6.3985374     -0.52425219    -1.2300647     -0.17406841    -0.16862345     0.023375267   -0.084435384    0.019714267    36.455138      5.9066711      5.9066711      0              0              0              0.17297301   
    183000   0.10463676     0.1712519     -3.1326802     -6.4274674     -0.53725732    -1.2793564     -0.17253248    -0.1598831      0.0047438989  -0.041159766   -0.012826903    36.821518      5.9066711      5.9066711      0              0              0              0.1712519    
    184000   0.095202556    0.16954792    -3.0867109     -6.3243037     -0.5209256     -1.2553315     -0.14153174    -0.16591359     0.024907397   -0.03672147     0.029759511    37.191581      5.9066711      5.9066711      0              0              0              0.16954792   
    185000   0.097042456    0.16786089    -3.0599431     -6.5808896     -0.55940134    -1.3065955     -0.17419053    -0.19741803    -0.009603818   -0.054543824    0.010765139    37.565362      5.9066711      5.9066711      0              0              0              0.16786089   
    186000   0.091628405    0.16619064    -3.0028164     -6.6002573     -0.56417136    -1.3270663     -0.19368478    -0.17176297     0.017006518   -0.044552867    0.0017807221   37.942901      5.9066711      5.9066711      0              0              0              0.16619064   
    187000   0.10525607     0.16453702    -2.9445215     -6.3000034     -0.52540807    -1.3741239     -0.12996533    -0.072134964    0.0097532652  -0.055221212    0.014451131    38.324233      5.9066711      5.9066711      0              0              0              0.16453702   
    188000   0.19685987     0.16289985    -3.1312604     -5.4250846     -0.38320525    -0.85216863    -0.15220826    -0.14523885     0.023870041   -0.045904888   -0.011699394    38.709398      5.9066711      5.9066711      0              0              0              0.16289985   
    189000   0.11728364     0.16127897    -3.668098      -4.035983      -0.079603017   -0.039676145   -0.07843392    -0.12069898     0.014948642    0.017146529    0.028294282    39.098434      5.9066711      5.9066711      0              0              0              0.16127897   
    190000   0.10140477     0.15967422    -3.7709332     -4.2598334     -0.092937188   -0.045927627   -0.10277146    -0.13011247     0.0024323242  -0.020153387    0.015494902    39.49138       5.9066711      5.9066711      0              0              0              0.15967422   
    191000   0.10073227     0.15808543    -3.9066259     -4.3705618     -0.088280473   -0.034123642   -0.14062291    -0.090094868    0.0016090032  -0.00054223615 -0.0025363578   39.888275      5.9066711      5.9066711      0              0              0              0.15808543   
    192000   0.091520604    0.15651245    -3.9959354     -4.2137995     -0.050433797    0.048584033   -0.088432405   -0.11145302    -0.028049227   -0.0019225748   0.012233174    40.289158      5.9066711      5.9066711      0              0              0              0.15651245   
    193000   0.092327563    0.15495513    -4.0316673     -4.3082883     -0.058378631    0.063374997   -0.072963937   -0.16554695     0.010768843   -0.0052957515   0.0038294555   40.694071      5.9066711      5.9066711      0              0              0              0.15495513   
    194000   0.096791909    0.1534133     -4.1002767     -4.4438539     -0.068065174   -0.056849545   -0.050668989   -0.096676988   -0.017871025    0.0089280645   0.022549294    41.103053      5.9066711      5.9066711      0              0              0              0.1534133    
    195000   0.099318231    0.15188681    -4.1427711     -4.4459785     -0.062334327    0.027344515   -0.10175934    -0.11258815     0.011285918    0.0068234152   0.018377776    41.516146      5.9066711      5.9066711      0              0              0              0.15188681   
    196000   0.11366164     0.15037551    -4.1290031     -4.470354      -0.06985501    -0.010020744   -0.068413849   -0.13113044     0.028247309    0.02898405     0.0028104273   41.93339       5.9066711      5.9066711      0              0              0              0.15037551   
    197000   0.096506638    0.14887925    -4.1813082     -4.1062223     -0.0093320516   0.02802408    -0.040671314   -0.015348921   -0.019005128    0.0054823516   0.027735014    42.354828      5.9066711      5.9066711      0              0              0              0.14887925   
    198000   0.1104245      0.14739788    -4.1980092     -4.3779544     -0.046196335    0.00030104841 -0.048016298   -0.090873757   -0.041158026    0.0014770186   0.024177307    42.780501      5.9066711      5.9066711      0              0              0              0.14739788   
    199000   0.11002114     0.14593125    -4.2596514     -4.577449      -0.063944964   -0.018749499   -0.073626652   -0.099458741   -0.0025935618  -0.0027215368   0.028425303    43.210452      5.9066711      5.9066711      0              0              0              0.14593125   
    200000   0.10179889     0.14447921    -4.306804      -4.4060176     -0.032987025    0.01659861    -0.046393928   -0.069165756   -0.012164242    0.0087241396  -0.020288564    43.644724      5.9066711      5.9066711      0              0              0              0.14447921   
Loop time of 42.9579 on 1 procs for 200000 steps with 200 atoms

Performance: 804508.431 tau/day, 4655.720 timesteps/s
49.9% CPU use with 1 MPI tasks x 1 OpenMP threads

MPI task timing breakdown:
Section |  min time  |  avg time  |  max time  |%varavg| %total
---------------------------------------------------------------
Pair    | 29.74      | 29.74      | 29.74      |   0.0 | 69.23
Bond    | 0.90636    | 0.90636    | 0.90636    |   0.0 |  2.11
Neigh   | 0.45802    | 0.45802    | 0.45802    |   0.0 |  1.07
Comm    | 1.8199     | 1.8199     | 1.8199     |   0.0 |  4.24
Output  | 1.4838     | 1.4838     | 1.4838     |   0.0 |  3.45
Modify  | 8.0539     | 8.0539     | 8.0539     |   0.0 | 18.75
Other   |            | 0.4962     |            |       |  1.16

Nlocal:            200 ave         200 max         200 min
Histogram: 1 0 0 0 0 0 0 0 0 0
Nghost:            789 ave         789 max         789 min
Histogram: 1 0 0 0 0 0 0 0 0 0
Neighs:           9172 ave        9172 max        9172 min
Histogram: 1 0 0 0 0 0 0 0 0 0

Total # of neighbors = 9172
Ave neighs/atom = 45.86
Ave special neighs/atom = 8.02
Neighbor list builds = 512
Dangerous builds = 0
System init for write_data ...
Generated 0 of 1 mixed pair_coeff terms from geometric mixing rule
WARNING: Not all mixed pair coeffs generated from mixing. Use write_data with 'pair ij' option to store all pair coeffs. (src/write_data.cpp:309)
Total wall time: 0:00:43
0.75625
