ITEM: TIMESTEP
0
ITEM: NUMBER OF ATOMS
200
ITEM: BOX BOUNDS pp pp pp
9.7046664435578606e+01 1.0295333556442139e+02
9.7046664435578606e+01 1.0295333556442139e+02
9.7046664435578606e+01 1.0295333556442139e+02
ITEM: ATOMS id mol type x y z
1 1 1 100.217 99.5198 101.161
2 1 1 99.1718 99.0467 101.224
3 2 1 99.0761 97.5951 97.452
4 2 1 99.1267 98.3035 102.33
5 3 1 97.6843 100.465 98.1165
6 3 1 98.4603 100.03 98.7983
7 4 1 99.4371 102.113 102.263
8 4 1 99.7226 102.847 101.38
9 5 1 99.6967 98.4338 99.3919
10 5 1 100.095 99.2247 98.6096
11 6 1 101.46 101.611 98.9163
12 6 1 100.991 100.639 98.3459
13 7 1 102.763 98.5488 102.709
14 7 1 102.527 99.6313 102.928
15 8 1 101.265 97.9481 100.486
16 8 1 101.678 98.7882 101.19
17 9 1 99.8715 102.926 102.88
18 9 1 100.244 97.8455 102.112
19 10 1 98.3758 97.2394 99.2431
20 10 1 97.31 102.888 99.5347
21 11 1 97.1338 101.494 97.9204
22 11 1 97.9681 101.326 98.6571
23 12 1 102.761 97.6436 97.3675
24 12 1 102.811 102.648 102.631
25 13 1 102.136 100.503 100.603
26 13 1 101.273 99.8749 100.985
27 14 1 102.351 102.938 98.9211
28 14 1 101.706 102.305 98.1395
29 15 1 98.9866 100.103 101.43
30 15 1 100.027 100.642 101.111
31 16 1 102.698 102.787 101.557
32 16 1 101.87 102.615 100.703
33 17 1 97.4508 99.4705 97.6701
34 17 1 97.6107 98.3063 97.6354
35 18 1 97.9752 102.786 102.344
36 18 1 97.8288 102.853 101.17
37 19 1 99.9689 99.4373 99.6854
38 19 1 99.5817 100.173 98.7631
39 20 1 98.3018 97.7512 101.684
40 20 1 98.2099 97.8054 102.833
41 21 1 98.821 102.813 98.3457
42 21 1 98.7834 102.497 97.1189
43 22 1 101.042 97.2393 102.519
44 22 1 101.64 102.551 101.77
45 23 1 100.784 100.35 101.837
46 23 1 101.857 100.714 101.633
47 24 1 97.4292 101.71 99.5286
48 24 1 98.5713 102.034 99.2246
49 25 1 100.316 101.27 100.292
50 25 1 100.029 102.396 100.378
51 26 1 97.1681 100.058 101.138
52 26 1 98.1356 100.57 100.858
53 27 1 101.96 101.619 101.083
54 27 1 101.095 101.412 101.879
55 28 1 102.144 97.6908 101.067
56 28 1 101.322 98.0515 101.892
57 29 1 99.859 101.8 101.243
58 29 1 98.7185 102.258 101.494
59 30 1 102.712 100.409 102.187
60 30 1 102.871 101.121 101.277
61 31 1 97.8712 98.6553 100.227
62 31 1 97.9619 98.756 101.511
63 32 1 101.843 101 102.699
64 32 1 102.301 101.932 97.2373
65 33 1 99.6163 99.3156 97.0546
66 33 1 100.517 98.8941 97.7082
67 34 1 97.605 100.271 102.791
68 34 1 97.1858 99.3476 102.049
69 35 1 101.012 97.2288 98.3217
70 35 1 100.542 102.03 98.4209
71 36 1 100.724 102.5 97.4659
72 36 1 101.845 102.879 97.2447
73 37 1 100.632 98.0983 99.6693
74 37 1 100.062 97.5362 100.532
75 38 1 102.832 98.1258 100.196
76 38 1 102.46 98.1033 99.0645
77 39 1 97.3456 97.7697 102.245
78 39 1 97.9229 98.8025 102.587
79 40 1 99.8914 98.6582 100.471
80 40 1 99.4774 98.0169 101.347
81 41 1 97.2947 98.6985 98.6005
82 41 1 97.2814 99.7964 98.8297
83 42 1 102.044 97.6184 98.1217
84 42 1 102.507 98.6517 97.8043
85 43 1 99.8429 98.2381 97.1996
86 43 1 100.872 98.6554 102.638
87 44 1 99.2013 101.39 97.1283
88 44 1 98.4754 101.919 97.9092
89 45 1 98.7563 98.631 97.3433
90 45 1 98.2564 98.9727 98.3474
91 46 1 97.162 100.888 100.214
92 46 1 97.6108 99.8183 100.143
93 47 1 101.159 100.812 99.531
94 47 1 100.545 100.16 100.319
95 48 1 99.9364 97.2618 98.1125
96 48 1 100.436 97.1409 99.2298
97 49 1 98.2756 101.254 100.032
98 49 1 98.1014 102.392 100.186
99 50 1 102.891 97.1518 100.548
100 50 1 101.994 97.4296 99.8486
101 51 1 98.4477 99.7336 97.251
102 51 1 99.0277 100.56 97.9015
103 52 1 99.2539 101.46 98.5353
104 52 1 100.288 101.108 99.0444
105 53 1 101.482 98.4969 98.2186
106 53 1 100.391 98.115 98.6121
107 54 1 99.0062 101.915 100.552
108 54 1 97.9346 101.656 100.992
109 55 1 99.4538 97.4783 99.0359
110 55 1 98.6326 98.3459 99.162
111 56 1 100.225 101.679 102.854
112 56 1 99.7477 100.5 97.0534
113 57 1 98.2716 97.8591 98.3105
114 57 1 97.6274 98.036 99.3483
115 58 1 101.159 99.5375 98.3333
116 58 1 102.106 99.186 98.9663
117 59 1 100.974 102.903 100.164
118 59 1 100.517 102.023 99.5015
119 60 1 102.623 98.4953 101.634
120 60 1 101.863 98.9636 102.329
121 61 1 99.453 101.635 99.6677
122 61 1 99.7401 100.473 99.7563
123 62 1 99.8486 99.9291 102.037
124 62 1 98.8323 99.3534 102.193
125 63 1 97.7631 102.386 98.6125
126 63 1 102.777 102.617 97.9135
127 64 1 97.6807 102.055 97.207
128 64 1 98.2059 101.03 97.3695
129 65 1 97.8747 100.933 101.873
130 65 1 97.1197 101.334 102.661
131 66 1 98.3822 101.687 102.446
132 66 1 98.7658 100.531 102.403
133 67 1 101.642 100.005 102.414
134 67 1 101.563 99.2032 97.412
135 68 1 100.992 99.2914 101.822
136 68 1 100.614 98.3588 101.216
137 69 1 99.1413 102.714 99.8375
138 69 1 99.6498 102.353 98.8654
139 70 1 97.982 97.5377 100.222
140 70 1 99.1414 97.8903 100.034
141 71 1 101.851 100.297 98.8031
142 71 1 101.474 99.8587 99.8671
143 72 1 100.467 102.388 102.003
144 72 1 101.367 102.044 102.65
145 73 1 100.582 100.047 99.0969
146 73 1 100.202 99.9809 97.9023
147 74 1 102.584 101.932 98.764
148 74 1 102.819 100.779 98.7738
149 75 1 98.5801 98.2613 100.848
150 75 1 98.2908 99.4885 100.862
151 76 1 101.569 100.25 97.5761
152 76 1 100.767 100.805 102.819
153 77 1 98.6098 100.106 99.8869
154 77 1 98.028 99.1925 99.3794
155 78 1 101.399 102.597 99.2205
156 78 1 102.373 102.284 99.782
157 79 1 100.926 102.082 101.035
158 79 1 101.168 100.951 100.805
159 80 1 102.144 99.4205 100.48
160 80 1 102.901 99.0376 99.6347
161 81 2 100.771 97.2338 101.239
162 82 2 97.4154 97.9679 101.116
163 83 2 97.278 97.538 98.4716
164 84 2 102.117 99.67 101.528
165 85 2 100.899 99 100.303
166 86 2 99.6291 102.177 97.7085
167 87 2 102.911 101.945 100.647
168 88 2 101.391 101.832 100.05
169 89 2 102.706 100.533 97.538
170 90 2 101.129 101.468 97.7007
171 91 2 100.781 97.7983 97.4819
172 92 2 99.0896 97.2614 102.199
173 93 2 97.4336 101.965 101.855
174 94 2 98.8993 101.217 101.524
175 95 2 102.2 97.5702 102.253
176 96 2 100.078 101.141 97.893
177 97 2 102.273 101.753 102.081
178 98 2 99.4509 99.7771 100.529
179 99 2 97.9142 97.1042 97.6463
180 100 2 99.1818 99.4605 98.0909
181 101 2 97.7194 100.555 99.3872
182 102 2 101.062 98.9537 99.2034
183 103 2 99.3167 98.3706 98.2627
184 104 2 102.324 99.6931 98.0597
185 105 2 101.428 97.8295 99.0569
186 106 2 97.1503 99.0591 100.837
187 107 2 102.514 100.142 99.5872
188 108 2 98.8532 97.1949 100.844
189 109 2 98.9326 98.9359 100.111
190 110 2 98.0241 99.878 101.787
191 111 2 102.167 101.154 99.5987
192 112 2 102.038 101.146 98.1169
193 113 2 98.7971 100.897 99.257
194 114 2 99.8771 101.073 102.068
195 115 2 99.0853 99.3014 99.139
196 116 2 100.623 99.6979 102.834
197 117 2 101.843 98.5782 99.8263
198 118 2 99.1649 100.862 100.535
199 119 2 99.9991 98.8735 102.069
200 120 2 101.739 98.1675 97.1611
ITEM: TIMESTEP
1000
ITEM: NUMBER OF ATOMS
200
ITEM: BOX BOUNDS pp pp pp
9.7016982919700553e+01 1.0298301708029945e+02
9.7046664435578606e+01 1.0295333556442139e+02
9.7046664435578606e+01 1.0295333556442139e+02
ITEM: ATOMS id mol type x y z
1 1 1 100.262 99.4767 101.13
2 1 1 99.2098 99.0023 101.215
3 2 1 99.0773 97.5835 97.4571
4 2 1 99.0718 98.2903 102.324
5 3 1 97.6547 100.525 98.101
6 3 1 98.4357 99.9949 98.7923
7 4 1 99.4483 102.143 102.391
8 4 1 99.7256 102.829 101.437
9 5 1 99.7288 98.4331 99.3422
10 5 1 100.08 99.2152 98.5582
11 6 1 101.545 101.631 98.9229
12 6 1 100.974 100.707 98.4377
13 7 1 102.773 98.5587 102.768
14 7 1 102.474 99.6529 102.974
15 8 1 101.33 97.931 100.554
16 8 1 101.712 98.8039 101.227
17 9 1 99.9426 102.938 102.935
18 9 1 100.217 97.812 102.136
19 10 1 98.4095 97.2689 99.2697
20 10 1 97.3112 102.821 99.4763
21 11 1 97.1979 101.509 97.9174
22 11 1 98.0013 101.348 98.7089
23 12 1 102.788 97.662 97.3572
24 12 1 102.793 102.635 102.582
25 13 1 102.196 100.578 100.604
26 13 1 101.266 99.8948 101.004
27 14 1 102.396 102.999 98.9478
28 14 1 101.759 102.294 98.1677
29 15 1 98.9764 100.124 101.368
30 15 1 100.047 100.631 101.05
31 16 1 102.754 102.756 101.501
32 16 1 101.908 102.657 100.677
33 17 1 97.4326 99.4536 97.6877
34 17 1 97.6074 98.3295 97.631
35 18 1 97.9582 102.816 102.332
36 18 1 97.8752 102.828 101.138
37 19 1 99.9505 99.4042 99.6645
38 19 1 99.6513 100.21 98.7465
39 20 1 98.325 97.8138 101.705
40 20 1 98.2214 97.8238 102.847
41 21 1 98.8532 102.774 98.3098
42 21 1 98.7127 102.543 97.1423
43 22 1 101.061 97.2342 102.518
44 22 1 101.61 102.477 101.701
45 23 1 100.772 100.383 101.821
46 23 1 101.874 100.736 101.613
47 24 1 97.4303 101.76 99.5723
48 24 1 98.5537 102.088 99.2332
49 25 1 100.337 101.254 100.199
50 25 1 100.013 102.361 100.409
51 26 1 97.1144 100.089 101.042
52 26 1 98.1649 100.54 100.839
53 27 1 101.942 101.613 101.035
54 27 1 101.14 101.42 101.914
55 28 1 102.186 97.683 101.078
56 28 1 101.368 98.0397 101.862
57 29 1 99.8266 101.816 101.311
58 29 1 98.7448 102.292 101.576
59 30 1 102.689 100.433 102.245
60 30 1 102.949 101.099 101.335
61 31 1 97.8277 98.6526 100.239
62 31 1 97.8603 98.7931 101.526
63 32 1 101.876 101.003 102.705
64 32 1 102.333 101.9 97.3974
65 33 1 99.6234 99.2967 97.012
66 33 1 100.538 98.9022 97.7031
67 34 1 97.5347 100.231 102.82
68 34 1 97.0986 99.4072 102.095
69 35 1 101.025 97.1843 98.306
70 35 1 100.537 101.998 98.3954
71 36 1 100.79 102.461 97.4855
72 36 1 101.882 102.915 97.3082
73 37 1 100.653 98.0527 99.7745
74 37 1 99.9299 97.4857 100.538
75 38 1 102.86 98.154 100.216
76 38 1 102.47 98.1467 99.0871
77 39 1 97.3505 97.7899 102.231
78 39 1 97.8428 98.8517 102.644
79 40 1 99.8885 98.6111 100.445
80 40 1 99.4721 97.9774 101.382
81 41 1 97.2739 98.696 98.5725
82 41 1 97.3134 99.8007 98.7784
83 42 1 102.064 97.6633 98.1691
84 42 1 102.449 98.7264 97.8465
85 43 1 99.845 98.2079 97.147
86 43 1 100.87 98.6403 102.663
87 44 1 99.1721 101.293 97.1573
88 44 1 98.4635 101.878 97.876
89 45 1 98.7458 98.7207 97.3396
90 45 1 98.2514 99.0225 98.3085
91 46 1 97.2174 100.842 100.299
92 46 1 97.5465 99.7294 100.126
93 47 1 101.188 100.786 99.5486
94 47 1 100.563 100.102 100.262
95 48 1 99.9492 97.1289 98.0948
96 48 1 100.448 97.2013 99.1978
97 49 1 98.241 101.268 100.043
98 49 1 98.1105 102.464 100.14
99 50 1 103.012 97.1562 100.461
100 50 1 102.007 97.4356 99.872
101 51 1 98.4136 99.7906 97.2301
102 51 1 98.9454 100.587 97.9531
103 52 1 99.2053 101.501 98.5192
104 52 1 100.219 101.124 99.0724
105 53 1 101.43 98.5208 98.1885
106 53 1 100.362 98.1061 98.5539
107 54 1 98.9938 101.958 100.546
108 54 1 97.9328 101.681 100.995
109 55 1 99.4821 97.5202 98.979
110 55 1 98.6475 98.3254 99.1352
111 56 1 100.22 101.61 102.851
112 56 1 99.7752 100.435 97.0451
113 57 1 98.3172 97.8315 98.3062
114 57 1 97.6393 98.053 99.3196
115 58 1 101.119 99.576 98.3053
116 58 1 102.003 99.2197 99.0199
117 59 1 100.964 102.911 100.159
118 59 1 100.54 102.035 99.4894
119 60 1 102.655 98.4697 101.651
120 60 1 101.862 98.9671 102.319
121 61 1 99.4288 101.623 99.6345
122 61 1 99.7483 100.464 99.7393
123 62 1 99.7844 99.9114 102.004
124 62 1 98.7748 99.2838 102.244
125 63 1 97.7474 102.424 98.6102
126 63 1 102.77 102.663 97.9541
127 64 1 97.6748 102.109 97.177
128 64 1 98.1182 100.996 97.2862
129 65 1 97.8789 100.958 101.859
130 65 1 97.1511 101.308 102.689
131 66 1 98.4268 101.725 102.452
132 66 1 98.7824 100.538 102.396
133 67 1 101.65 100.019 102.382
134 67 1 101.498 99.2674 97.375
135 68 1 101.006 99.3028 101.826
136 68 1 100.58 98.3162 101.198
137 69 1 99.2401 102.739 99.8344
138 69 1 99.6993 102.34 98.8698
139 70 1 97.9755 97.5978 100.21
140 70 1 99.1014 97.9192 99.9901
141 71 1 101.848 100.306 98.8532
142 71 1 101.419 99.7757 99.8457
143 72 1 100.486 102.347 102.055
144 72 1 101.489 102.077 102.683
145 73 1 100.626 99.998 99.124
146 73 1 100.288 100.065 97.8928
147 74 1 102.637 101.94 98.7932
148 74 1 102.839 100.781 98.7543
149 75 1 98.5632 98.2446 100.833
150 75 1 98.2537 99.4237 100.829
151 76 1 101.527 100.286 97.6157
152 76 1 100.804 100.761 102.81
153 77 1 98.5578 100.032 99.8582
154 77 1 97.9942 99.1076 99.3256
155 78 1 101.397 102.629 99.2116
156 78 1 102.388 102.297 99.7939
157 79 1 100.877 102.085 101.011
158 79 1 101.118 100.932 100.813
159 80 1 102.125 99.4039 100.49
160 80 1 102.874 99.0451 99.6192
161 81 2 100.727 97.2293 101.245
162 82 2 97.4284 97.9225 101.115
163 83 2 97.2598 97.5404 98.4546
164 84 2 102.116 99.7147 101.513
165 85 2 100.906 98.9497 100.287
166 86 2 99.638 102.127 97.6639
167 87 2 102.919 101.942 100.67
168 88 2 101.414 101.808 100.047
169 89 2 102.695 100.542 97.5658
170 90 2 101.147 101.445 97.7028
171 91 2 100.765 97.7608 97.4781
172 92 2 99.1465 97.285 102.214
173 93 2 97.4935 101.983 101.891
174 94 2 98.8832 101.163 101.488
175 95 2 102.17 97.5647 102.306
176 96 2 100.009 101.14 97.9461
177 97 2 102.335 101.741 102.029
178 98 2 99.4336 99.7448 100.513
179 99 2 97.8509 97.1372 97.6521
180 100 2 99.2376 99.5494 98.0453
181 101 2 97.7056 100.602 99.3342
182 102 2 100.982 98.8788 99.1833
183 103 2 99.3535 98.4694 98.2298
184 104 2 102.317 99.6957 98.0976
185 105 2 101.465 97.8829 99.0661
186 106 2 97.0481 99.0004 100.843
187 107 2 102.534 100.127 99.6316
188 108 2 98.8956 97.2162 100.852
189 109 2 98.9523 98.9223 100.085
190 110 2 98.0154 99.9192 101.793
191 111 2 102.258 101.141 99.6545
192 112 2 102.015 101.094 98.1383
193 113 2 98.8289 100.888 99.242
194 114 2 99.8002 101.023 102.058
195 115 2 99.0891 99.2535 99.068
196 116 2 100.598 99.7203 102.812
197 117 2 101.817 98.62 99.8671
198 118 2 99.1376 100.863 100.469
199 119 2 100.02 98.83 102.081
200 120 2 101.758 98.1914 97.1953
ITEM: TIMESTEP
2000
ITEM: NUMBER OF ATOMS
200
ITEM: BOX BOUNDS pp pp pp
9.6987003099628623e+01 1.0301299690037138e+02
9.7046664435578606e+01 1.0295333556442139e+02
9.7046664435578606e+01 1.0295333556442139e+02
ITEM: ATOMS id mol type x y z
1 1 1 100.246 99.4837 101.135
2 1 1 99.1401 98.998 101.28
3 2 1 99.1142 97.5429 97.5052
4 2 1 99.0804 98.2499 102.385
5 3 1 97.684 100.481 98.1163
6 3 1 98.4115 99.9956 98.8033
7 4 1 99.4471 102.078 102.314
8 4 1 99.6918 102.795 101.381
9 5 1 99.7429 98.4134 99.3907
10 5 1 100.054 99.2333 98.5688
11 6 1 101.467 101.566 98.9189
12 6 1 100.93 100.733 98.336
13 7 1 102.812 98.562 102.709
14 7 1 102.479 99.7031 102.949
15 8 1 101.355 97.871 100.604
16 8 1 101.825 98.7579 101.14
17 9 1 99.9655 102.866 102.902
18 9 1 100.208 97.7726 102.134
19 10 1 98.3378 97.2182 99.2165
20 10 1 97.2253 102.884 99.4615
21 11 1 97.1586 101.501 97.953
22 11 1 97.9769 101.303 98.76
23 12 1 102.777 97.6956 97.3544
24 12 1 102.893 102.697 102.598
25 13 1 102.251 100.559 100.623
26 13 1 101.368 99.8121 100.969
27 14 1 102.329 103.003 98.9047
28 14 1 101.677 102.289 98.1269
29 15 1 98.9651 100.104 101.382
30 15 1 99.9937 100.668 101.034
31 16 1 102.79 102.762 101.53
32 16 1 101.891 102.701 100.705
33 17 1 97.3644 99.4645 97.712
34 17 1 97.5699 98.3249 97.6821
35 18 1 97.9786 102.774 102.361
36 18 1 97.8262 102.761 101.149
37 19 1 99.9824 99.3715 99.6821
38 19 1 99.5703 100.161 98.8232
39 20 1 98.3149 97.7693 101.74
40 20 1 98.2401 97.7986 102.928
41 21 1 98.7542 102.695 98.3225
42 21 1 98.6273 102.469 97.1504
43 22 1 101.1 97.2308 102.471
44 22 1 101.725 102.56 101.698
45 23 1 100.767 100.342 101.74
46 23 1 101.899 100.716 101.62
47 24 1 97.3191 101.777 99.5329
48 24 1 98.5115 102.045 99.2899
49 25 1 100.372 101.249 100.211
50 25 1 100.025 102.362 100.39
51 26 1 97.193 100.099 101.226
52 26 1 98.1226 100.568 100.843
53 27 1 102.046 101.612 101.052
54 27 1 101.172 101.454 101.841
55 28 1 102.327 97.7494 101.063
56 28 1 101.393 98.0085 101.79
57 29 1 99.8422 101.757 101.221
58 29 1 98.7399 102.23 101.556
59 30 1 102.725 100.418 102.191
60 30 1 102.958 101.119 101.243
61 31 1 97.8285 98.6766 100.281
62 31 1 97.919 98.7491 101.512
63 32 1 101.977 100.958 102.719
64 32 1 102.356 101.956 97.2759
65 33 1 99.6711 99.3259 97.0108
66 33 1 100.554 98.8968 97.6459
67 34 1 97.4851 100.243 102.831
68 34 1 97.1394 99.3679 102.114
69 35 1 100.984 97.1742 98.3491
70 35 1 100.614 101.977 98.3693
71 36 1 100.844 102.503 97.4718
72 36 1 101.93 102.949 97.2718
73 37 1 100.663 98.1266 99.817
74 37 1 99.9717 97.518 100.531
75 38 1 102.882 98.2324 100.254
76 38 1 102.501 98.1503 99.1243
77 39 1 97.3386 97.737 102.322
78 39 1 97.9018 98.7701 102.603
79 40 1 99.8243 98.6352 100.452
80 40 1 99.4855 97.991 101.358
81 41 1 97.2921 98.7053 98.6084
82 41 1 97.1579 99.832 98.7427
83 42 1 102.017 97.6672 98.1047
84 42 1 102.561 98.6608 97.8691
85 43 1 99.8902 98.1686 97.2155
86 43 1 100.852 98.593 102.592
87 44 1 99.1992 101.32 97.1715
88 44 1 98.3958 101.782 97.9236
89 45 1 98.8195 98.6999 97.3398
90 45 1 98.2692 99.0532 98.2833
91 46 1 97.1464 100.939 100.247
92 46 1 97.5139 99.8144 100.186
93 47 1 101.141 100.812 99.585
94 47 1 100.619 100.075 100.298
95 48 1 99.9972 97.2436 98.0663
96 48 1 100.364 97.2363 99.2546
97 49 1 98.199 101.288 100.083
98 49 1 97.9621 102.411 100.172
99 50 1 103.024 97.2146 100.47
100 50 1 102.05 97.4956 99.8538
101 51 1 98.4159 99.8229 97.2481
102 51 1 98.8136 100.658 98.0184
103 52 1 99.1342 101.517 98.5835
104 52 1 100.211 101.112 99.041
105 53 1 101.489 98.5777 98.229
106 53 1 100.415 98.193 98.5658
107 54 1 98.9623 101.96 100.515
108 54 1 97.9401 101.643 101.048
109 55 1 99.3772 97.5127 98.8833
110 55 1 98.5232 98.3093 99.1467
111 56 1 100.238 101.626 102.927
112 56 1 99.8322 100.463 96.9878
113 57 1 98.256 97.8101 98.3146
114 57 1 97.5405 97.9894 99.3326
115 58 1 101.109 99.5984 98.3298
116 58 1 102.021 99.2273 99.0876
117 59 1 100.988 102.941 100.143
118 59 1 100.532 102.047 99.4795
119 60 1 102.765 98.4658 101.655
120 60 1 101.915 98.962 102.279
121 61 1 99.4777 101.636 99.6096
122 61 1 99.7668 100.446 99.7744
123 62 1 99.789 99.928 101.989
124 62 1 98.8157 99.2985 102.281
125 63 1 97.6994 102.435 98.6156
126 63 1 102.745 102.644 97.9502
127 64 1 97.5907 102.083 97.1548
128 64 1 98.135 100.974 97.2674
129 65 1 97.7542 100.858 101.914
130 65 1 97.0441 101.266 102.72
131 66 1 98.4029 101.64 102.427
132 66 1 98.9162 100.543 102.385
133 67 1 101.676 100.019 102.332
134 67 1 101.507 99.2359 97.3402
135 68 1 101.036 99.2376 101.763
136 68 1 100.564 98.2697 101.189
137 69 1 99.1535 102.701 99.7898
138 69 1 99.7076 102.391 98.8263
139 70 1 97.9828 97.5561 100.162
140 70 1 99.0985 97.8543 99.987
141 71 1 101.831 100.356 98.8203
142 71 1 101.538 99.7939 99.82
143 72 1 100.483 102.279 101.985
144 72 1 101.491 102.125 102.623
145 73 1 100.579 100.055 99.0992
146 73 1 100.205 100.058 97.8839
147 74 1 102.498 101.92 98.7491
148 74 1 102.9 100.853 98.7966
149 75 1 98.5676 98.2445 100.8
150 75 1 98.2666 99.4718 100.859
151 76 1 101.592 100.285 97.5825
152 76 1 100.861 100.815 102.717
153 77 1 98.518 100.023 99.894
154 77 1 97.9549 99.2022 99.3403
155 78 1 101.386 102.607 99.2111
156 78 1 102.365 102.326 99.8121
157 79 1 100.875 102.038 100.947
158 79 1 101.188 100.887 100.802
159 80 1 102.25 99.4565 100.474
160 80 1 102.981 99.0366 99.6415
161 81 2 100.763 97.1577 101.267
162 82 2 97.4383 97.8648 101.137
163 83 2 97.1515 97.5719 98.4347
164 84 2 102.198 99.6744 101.497
165 85 2 100.899 98.9818 100.345
166 86 2 99.5579 102.144 97.67
167 87 2 102.961 102.023 100.66
168 88 2 101.416 101.838 100.053
169 89 2 102.753 100.505 97.6485
170 90 2 101.246 101.475 97.6509
171 91 2 100.903 97.7905 97.5233
172 92 2 99.0877 97.2355 102.255
173 93 2 97.4438 101.949 101.9
174 94 2 98.9283 101.137 101.505
175 95 2 102.252 97.605 102.278
176 96 2 99.9136 101.135 97.9399
177 97 2 102.333 101.77 102.046
178 98 2 99.4679 99.7554 100.513
179 99 2 97.7215 97.1211 97.6192
180 100 2 99.211 99.6283 98.0324
181 101 2 97.6729 100.542 99.3893
182 102 2 100.946 98.9522 99.2303
183 103 2 99.3521 98.5254 98.2558
184 104 2 102.262 99.6571 98.0971
185 105 2 101.406 97.8832 99.1054
186 106 2 97.0997 99.0783 100.888
187 107 2 102.578 100.153 99.5956
188 108 2 98.8054 97.1763 100.818
189 109 2 98.9187 98.9329 100.043
190 110 2 98.0473 99.8672 101.865
191 111 2 102.268 101.168 99.6301
192 112 2 102.093 101.131 98.1193
193 113 2 98.7767 100.888 99.3194
194 114 2 99.8881 101.062 102.059
195 115 2 99.0797 99.2195 99.0449
196 116 2 100.672 99.6855 102.76
197 117 2 101.792 98.6369 99.9373
198 118 2 99.1298 100.911 100.45
199 119 2 100.024 98.8445 102.03
200 120 2 101.812 98.2483 97.1704
ITEM: TIMESTEP
3000
ITEM: NUMBER OF ATOMS
200
ITEM: BOX BOUNDS pp pp pp
9.6956721977355812e+01 1.0304327802264419e+02
9.7046664435578606e+01 1.0295333556442139e+02
9.7046664435578606e+01 1.0295333556442139e+02
ITEM: ATOMS id mol type x y z
1 1 1 100.245 99.4776 101.167
2 1 1 99.1337 99.0183 101.309
3 2 1 99.1998 97.5966 97.4028
4 2 1 99.1842 98.3434 102.305
5 3 1 97.5767 100.444 98.0983
6 3 1 98.4206 99.9598 98.7257
7 4 1 99.3905 102.045 102.312
8 4 1 99.7189 102.775 101.382
9 5 1 99.716 98.4067 99.3895
10 5 1 100.057 99.1718 98.6078
11 6 1 101.409 101.651 98.8974
12 6 1 100.979 100.693 98.3862
13 7 1 102.869 98.5812 102.71
14 7 1 102.547 99.6696 103.005
15 8 1 101.377 97.85 100.533
16 8 1 101.749 98.8082 101.081
17 9 1 99.9224 102.858 102.796
18 9 1 100.253 97.8602 102.154
19 10 1 98.2973 97.2336 99.1758
20 10 1 97.2358 102.824 99.4382
21 11 1 97.0946 101.501 97.9805
22 11 1 98.0553 101.243 98.5985
23 12 1 102.837 97.6644 97.3224
24 12 1 102.861 102.614 102.575
25 13 1 102.22 100.515 100.577
26 13 1 101.367 99.8035 100.947
27 14 1 102.343 102.95 98.8916
28 14 1 101.721 102.289 98.0929
29 15 1 98.9554 100.143 101.445
30 15 1 99.995 100.608 101.189
31 16 1 102.747 102.649 101.463
32 16 1 101.927 102.648 100.599
33 17 1 97.3575 99.4559 97.7053
34 17 1 97.5405 98.3167 97.5805
35 18 1 97.8864 102.752 102.359
36 18 1 97.8073 102.816 101.168
37 19 1 99.9827 99.4017 99.6902
38 19 1 99.5923 100.17 98.7805
39 20 1 98.222 97.7389 101.719
40 20 1 98.2795 97.8225 102.85
41 21 1 98.8025 102.912 98.2405
42 21 1 98.6886 102.59 97.1103
43 22 1 101.13 97.2939 102.501
44 22 1 101.702 102.542 101.717
45 23 1 100.804 100.293 101.816
46 23 1 101.923 100.679 101.571
47 24 1 97.3063 101.725 99.5095
48 24 1 98.4734 102.001 99.2314
49 25 1 100.318 101.269 100.254
50 25 1 99.9241 102.383 100.393
51 26 1 97.1181 100.104 101.121
52 26 1 98.1595 100.523 100.794
53 27 1 101.989 101.631 101.04
54 27 1 101.158 101.424 101.902
55 28 1 102.237 97.6571 101.065
56 28 1 101.435 98.0611 101.826
57 29 1 99.775 101.691 101.214
58 29 1 98.7259 102.311 101.551
59 30 1 102.754 100.43 102.235
60 30 1 102.895 101.119 101.283
61 31 1 97.8124 98.6252 100.26
62 31 1 97.8181 98.7481 101.485
63 32 1 101.86 101.017 102.736
64 32 1 102.404 101.901 97.3114
65 33 1 99.6875 99.3144 97.0199
66 33 1 100.624 98.9121 97.7071
67 34 1 97.5466 100.253 102.874
68 34 1 97.0822 99.3816 102.168
69 35 1 101.111 97.1908 98.3755
70 35 1 100.507 102.058 98.4042
71 36 1 100.817 102.585 97.485
72 36 1 101.958 102.938 97.2754
73 37 1 100.649 98.0655 99.7701
74 37 1 100.004 97.5172 100.556
75 38 1 102.879 98.1706 100.25
76 38 1 102.523 98.1734 99.0979
77 39 1 97.3109 97.7956 102.289
78 39 1 97.872 98.8441 102.635
79 40 1 99.8536 98.6728 100.461
80 40 1 99.5016 98.0062 101.365
81 41 1 97.226 98.6477 98.5508
82 41 1 97.3031 99.7811 98.8086
83 42 1 102.058 97.6614 98.1097
84 42 1 102.518 98.7689 97.8267
85 43 1 99.9472 98.2801 97.2374
86 43 1 100.937 98.5904 102.607
87 44 1 99.1272 101.39 97.193
88 44 1 98.419 101.975 97.9316
89 45 1 98.8481 98.6683 97.3102
90 45 1 98.2486 99.0069 98.2826
91 46 1 97.2022 100.87 100.297
92 46 1 97.5673 99.7493 100.109
93 47 1 101.178 100.799 99.5406
94 47 1 100.574 100.15 100.371
95 48 1 100.002 97.2388 98.0708
96 48 1 100.419 97.2024 99.2072
97 49 1 98.1676 101.273 100.009
98 49 1 98.0038 102.429 100.195
99 50 1 103.096 97.1562 100.451
100 50 1 102.122 97.4404 99.8556
101 51 1 98.3412 99.7052 97.3387
102 51 1 98.9553 100.575 97.9326
103 52 1 99.2016 101.486 98.498
104 52 1 100.208 101.07 99.1045
105 53 1 101.488 98.5387 98.2071
106 53 1 100.463 98.1677 98.6088
107 54 1 98.9434 101.954 100.537
108 54 1 97.8853 101.655 100.97
109 55 1 99.4235 97.4848 99.0256
110 55 1 98.5952 98.2593 99.2006
111 56 1 100.167 101.641 102.923
112 56 1 99.6713 100.478 97.0822
113 57 1 98.1675 97.9201 98.3008
114 57 1 97.5622 98.0605 99.3312
115 58 1 101.189 99.594 98.3274
116 58 1 102.07 99.2346 99.0584
117 59 1 100.882 102.889 100.227
118 59 1 100.496 102.043 99.5021
119 60 1 102.728 98.4507 101.58
120 60 1 102.01 99.0351 102.308
121 61 1 99.4651 101.664 99.6664
122 61 1 99.7347 100.469 99.8087
123 62 1 99.7998 99.9089 102.045
124 62 1 98.7748 99.3756 102.304
125 63 1 97.6316 102.326 98.5548
126 63 1 102.798 102.635 97.9139
127 64 1 97.5242 102.141 97.2507
128 64 1 98.0772 101.088 97.393
129 65 1 97.802 100.9 101.849
130 65 1 97.0809 101.338 102.65
131 66 1 98.3028 101.726 102.44
132 66 1 98.619 100.563 102.472
133 67 1 101.683 100.032 102.368
134 67 1 101.581 99.2508 97.4047
135 68 1 101.096 99.2642 101.824
136 68 1 100.633 98.3644 101.146
137 69 1 99.0484 102.737 99.8317
138 69 1 99.6021 102.388 98.8696
139 70 1 98.0427 97.5573 100.176
140 70 1 99.1338 97.8591 100.071
141 71 1 101.878 100.334 98.8772
142 71 1 101.428 99.7785 99.8156
143 72 1 100.419 102.282 102.032
144 72 1 101.463 102.13 102.663
145 73 1 100.592 99.9851 99.0959
146 73 1 100.26 100.031 97.9301
147 74 1 102.553 101.902 98.7768
148 74 1 102.889 100.76 98.7367
149 75 1 98.5715 98.2646 100.852
150 75 1 98.2824 99.4765 100.835
151 76 1 101.611 100.288 97.5829
152 76 1 100.768 100.761 102.845
153 77 1 98.5619 100.04 99.8358
154 77 1 98.001 99.1391 99.3061
155 78 1 101.434 102.672 99.3619
156 78 1 102.458 102.267 99.758
157 79 1 100.814 102.046 100.949
158 79 1 101.17 100.93 100.823
159 80 1 102.232 99.3839 100.36
160 80 1 103.04 98.9655 99.6078
161 81 2 100.763 97.1839 101.31
162 82 2 97.3927 97.8765 101.101
163 83 2 97.148 97.5288 98.4613
164 84 2 102.234 99.6584 101.47
165 85 2 100.893 98.9597 100.293
166 86 2 99.5982 102.239 97.7183
167 87 2 102.949 101.95 100.642
168 88 2 101.43 101.822 100.028
169 89 2 102.739 100.614 97.5362
170 90 2 101.098 101.51 97.686
171 91 2 100.908 97.8345 97.5838
172 92 2 99.1276 97.3152 102.162
173 93 2 97.3788 101.924 101.872
174 94 2 98.7885 101.199 101.565
175 95 2 102.298 97.5733 102.233
176 96 2 100.006 101.159 97.9399
177 97 2 102.311 101.711 102.084
178 98 2 99.4217 99.7698 100.562
179 99 2 97.8367 97.1674 97.6768
180 100 2 99.2712 99.5223 98.0239
181 101 2 97.6585 100.583 99.3507
182 102 2 101.03 98.8981 99.2146
183 103 2 99.3089 98.4038 98.2456
184 104 2 102.378 99.7805 98.1707
185 105 2 101.461 97.8923 99.079
186 106 2 97.0384 99.0855 100.817
187 107 2 102.711 100.083 99.5628
188 108 2 98.8529 97.2049 100.877
189 109 2 98.9127 98.959 100.062
190 110 2 97.9516 99.8554 101.793
191 111 2 102.394 101.1 99.6694
192 112 2 102.016 101.13 98.1282
193 113 2 98.7727 100.866 99.263
194 114 2 99.7593 101.033 102.086
195 115 2 99.0886 99.1954 99.0831
196 116 2 100.722 99.671 102.826
197 117 2 101.844 98.576 99.8413
198 118 2 99.1192 100.929 100.536
199 119 2 100.062 98.8841 102.02
200 120 2 101.848 98.2068 97.0973
ITEM: TIMESTEP
4000
ITEM: NUMBER OF ATOMS
200
ITEM: BOX BOUNDS pp pp pp
9.6926136524744649e+01 1.0307386347525535e+02
9.7046664435578606e+01 1.0295333556442139e+02
9.7046664435578606e+01 1.0295333556442139e+02
ITEM: ATOMS id mol type x y z
1 1 1 100.237 99.4415 101.124
2 1 1 99.0907 99.0764 101.255
3 2 1 99.1275 97.5917 97.4777
4 2 1 99.0588 98.3001 102.334
5 3 1 97.5235 100.455 98.0994
6 3 1 98.4189 100.056 98.7663
7 4 1 99.3949 102.086 102.337
8 4 1 99.7465 102.872 101.473
9 5 1 99.6505 98.4168 99.3807
10 5 1 100.059 99.1576 98.5622
11 6 1 101.396 101.56 98.8922
12 6 1 100.999 100.63 98.3206
13 7 1 102.856 98.5418 102.706
14 7 1 102.475 99.6455 102.929
15 8 1 101.364 97.9498 100.5
16 8 1 101.734 98.7817 101.205
17 9 1 99.9498 102.884 102.898
18 9 1 100.227 97.7618 102.097
19 10 1 98.2867 97.2112 99.1552
20 10 1 97.1985 102.887 99.4917
21 11 1 97.0816 101.488 97.9405
22 11 1 97.9792 101.237 98.6312
23 12 1 102.901 97.6749 97.3748
24 12 1 102.985 102.6 102.654
25 13 1 102.389 100.441 100.643
26 13 1 101.402 99.8373 100.96
27 14 1 102.424 102.99 98.9077
28 14 1 101.772 102.302 98.1961
29 15 1 98.8872 100.171 101.357
30 15 1 99.965 100.679 101.092
31 16 1 102.809 102.762 101.538
32 16 1 101.978 102.658 100.644
33 17 1 97.2621 99.4403 97.6635
34 17 1 97.5453 98.3128 97.6179
35 18 1 97.836 102.742 102.347
36 18 1 97.7615 102.745 101.124
37 19 1 100.025 99.4005 99.6299
38 19 1 99.5933 100.186 98.7636
39 20 1 98.2419 97.7249 101.701
40 20 1 98.2122 97.7618 102.863
41 21 1 98.8462 102.804 98.2799
42 21 1 98.6515 102.535 97.1205
43 22 1 101.16 97.2465 102.551
44 22 1 101.717 102.56 101.67
45 23 1 100.781 100.376 101.769
46 23 1 101.949 100.705 101.596
47 24 1 97.3001 101.813 99.5629
48 24 1 98.4802 102 99.1777
49 25 1 100.398 101.289 100.221
50 25 1 99.9637 102.376 100.407
51 26 1 97.1516 100.098 101.292
52 26 1 98.121 100.538 100.785
53 27 1 102.049 101.667 101.051
54 27 1 101.171 101.428 101.806
55 28 1 102.239 97.6783 101.132
56 28 1 101.42 98.0494 101.873
57 29 1 99.8212 101.787 101.248
58 29 1 98.7232 102.297 101.557
59 30 1 102.756 100.406 102.267
60 30 1 102.971 101.108 101.303
61 31 1 97.7146 98.6707 100.274
62 31 1 97.7954 98.7365 101.524
63 32 1 101.943 101.029 102.69
64 32 1 102.467 101.899 97.3509
65 33 1 99.6885 99.3806 97.0668
66 33 1 100.572 98.8671 97.6897
67 34 1 97.4808 100.309 102.845
68 34 1 97.0585 99.356 102.164
69 35 1 101.131 97.2957 98.3275
70 35 1 100.614 102.105 98.4068
71 36 1 100.862 102.532 97.5059
72 36 1 102.014 102.882 97.2698
73 37 1 100.619 98.1252 99.769
74 37 1 99.99 97.5418 100.561
75 38 1 102.848 98.2152 100.342
76 38 1 102.497 98.1184 99.1477
77 39 1 97.2822 97.7393 102.285
78 39 1 97.8459 98.8168 102.629
79 40 1 99.8499 98.6503 100.463
80 40 1 99.411 98.0093 101.365
81 41 1 97.0988 98.6712 98.4682
82 41 1 97.136 99.7091 98.9157
83 42 1 102.143 97.7072 98.1221
84 42 1 102.505 98.782 97.7408
85 43 1 99.8286 98.2983 97.1811
86 43 1 100.886 98.6421 102.611
87 44 1 99.2041 101.354 97.1512
88 44 1 98.4488 101.882 97.9103
89 45 1 98.7063 98.6911 97.3677
90 45 1 98.1524 98.9833 98.3507
91 46 1 97.1444 100.908 100.276
92 46 1 97.4704 99.8158 100.177
93 47 1 101.219 100.752 99.6284
94 47 1 100.591 100.018 100.297
95 48 1 100.06 97.1209 98.1281
96 48 1 100.464 97.1976 99.2438
97 49 1 98.1602 101.283 99.9899
98 49 1 98.0404 102.469 100.101