LAMMPS (23 Jun 2022)
OMP_NUM_THREADS environment is not set. Defaulting to 1 thread. (src/comm.cpp:98)
  using 1 OpenMP thread(s) per MPI task
Reading data file ...
  orthogonal box = (96.87115 96.87115 96.87115) to (103.12885 103.12885 103.12885)
  1 by 1 by 1 MPI processor grid
  reading atoms ...
  200 atoms
  scanning bonds ...
  4 = max bonds/atom
  reading bonds ...
  201 bonds
Finding 1-2 1-3 1-4 neighbors ...
  special bond factors lj:    0        0        0       
  special bond factors coul:  0        0        0       
     4 = max # of 1-2 neighbors
     4 = max # of 1-3 neighbors
    10 = max # of 1-4 neighbors
    12 = max # of special neighbors
  special bonds CPU = 0.000 seconds
  read_data CPU = 0.013 seconds
Finding 1-2 1-3 1-4 neighbors ...
  special bond factors lj:    0        1        1       
  special bond factors coul:  0        0        0       
     4 = max # of 1-2 neighbors
     4 = max # of 1-3 neighbors
    10 = max # of 1-4 neighbors
    12 = max # of special neighbors
  special bonds CPU = 0.000 seconds
Generated 0 of 1 mixed pair_coeff terms from geometric mixing rule
Neighbor list info ...
  update every 1 steps, delay 0 steps, check yes
  max neighbors/atom: 2000, page size: 100000
  master list distance cutoff = 5.5
  ghost atom cutoff = 5.5
  binsize = 2.75, bins = 3 3 3
  1 neighbor lists, perpetual/occasional/extra = 1 0 0
  (1) pair lj/cut, perpetual
      attributes: half, newton on
      pair build: half/bin/newton
      stencil: half/bin/3d
      bin: standard
Setting up Verlet run ...
  Unit style    : lj
  Current step  : 0
  Time step     : 0.002
WARNING: Inconsistent image flags (src/domain.cpp:819)
Per MPI rank memory allocation (min/avg/max) = 8.746 | 8.746 | 8.746 Mbytes
   Step          Temp         Density         PotEng        Enthalpy        Press           Pxx            Pyy            Pzz            Pxy            Pxz            Pyz             Lx             Ly             Lz             Xy             Yz             Xz          Density    
         0   1.5            0.89779793    -4.3343598      0.8510346      2.404992       2.0596097      2.6747632      2.4806031     -0.1380195      0.31136223     0.27947469     6.2576994      6.2576994      6.2576994      0              0              0              0.89779793   
      1000   1.4065475      0.78786585    -2.9347996     -0.10146865     0.5257635      0.55527176     0.54934619     0.47267255     0.29738981     0.21342541    -0.50850464     6.5361719      6.5361719      6.5361719      0              0              0              0.78786585   
      2000   1.4346921      0.76253583    -2.7994318      0.38503878     0.72315615     1.2110825      1.0160416     -0.057655609    0.022798335   -0.28869878     0.10095117     6.6077582      6.6077582      6.6077582      0              0              0              0.76253583   
      3000   1.4003414      0.76579905    -2.9044804     -0.27779701     0.37362216     0.79902644    -0.47785868     0.79969874    -0.39521935     0.59790631     0.22405335     6.5983592      6.5983592      6.5983592      0              0              0              0.76579905   
      4000   1.6511253      0.78349983    -2.9193623      0.98687109     1.0270463      1.030714       1.2655809      0.78484413     0.21725183     0.20999091     0.39316458     6.5482903      6.5482903      6.5482903      0              0              0              0.78349983   
      5000   1.5481644      0.77191782    -2.9434346      0.47040749     0.77416817     0.41530734     1.1230244      0.78417273    -0.1177387      0.65407696     0.1990571      6.5808785      6.5808785      6.5808785      0              0              0              0.77191782   
      6000   1.5529168      0.76885323    -3.0582379      0.050480631    0.55286857     0.081344807    0.75050329     0.82675762     0.47163736    -0.34604674    -0.5449916      6.5896105      6.5896105      6.5896105      0              0              0              0.76885323   
      7000   1.4613967      0.74419126    -2.6558116      1.1443555      1.0953363      1.0400867      1.8270942      0.41882792     0.39914269     0.16210941    -0.44365112     6.6616126      6.6616126      6.6616126      0              0              0              0.74419126   
      8000   1.5393048      0.80677866    -3.0532873      0.73183362     1.0911377      0.27732858     1.1686167      1.8274678     -0.090399064   -0.48609936    -0.20113642     6.4846931      6.4846931      6.4846931      0              0              0              0.80677866   
      9000   1.3079394      0.81497864    -3.1888506     -0.35433096     0.65377591     0.57449088     0.52201926     0.86481759    -0.090103993    0.89381247    -0.71655869     6.462871       6.462871       6.462871       0              0              0              0.81497864   
     10000   1.4935174      0.78756303    -3.3391335     -0.67726034     0.30986919     0.71787366     0.48228459    -0.27055069     0.030284974    0.11000261     0.3016641      6.5370096      6.5370096      6.5370096      0              0              0              0.78756303   
     11000   1.4017932      0.82250833    -3.1476252      0.68077219     1.298233       0.84458536     1.534925       1.5151885     -0.58564011    -0.018342036   -0.62088596     6.4430889      6.4430889      6.4430889      0              0              0              0.82250833   
     12000   1.358999       0.82815952    -3.2151491     -0.070864444    0.84018949     1.3445931      0.8144313      0.36154411    -0.53143273     0.60250114     0.045366299    6.4284         6.4284         6.4284         0              0              0              0.82815952   
     13000   1.278873       0.81850833    -3.4502023     -0.78112055     0.56578556     1.1982285      0.051956144    0.44717207     0.57719679    -0.36058405    -0.049188282    6.4535675      6.4535675      6.4535675      0              0              0              0.81850833   
     14000   1.3971205      0.79710313    -3.3369173     -0.50646617     0.54003646     0.10864286     0.23068036     1.2807862      0.23174895     0.87501519    -0.2213522      6.5108255      6.5108255      6.5108255      0              0              0              0.79710313   
     15000   1.3487144      0.77955789    -3.0405094     -0.2753099      0.5331065      0.77166595     0.46867964     0.3589739     -0.052991756    0.33461263     0.10865712     6.5593092      6.5593092      6.5593092      0              0              0              0.77955789   
     16000   1.5098169      0.80327857    -3.2380079      0.12216134     0.80822062     1.2339792     -0.41069891     1.6013816     -0.0036607093  -0.12199566    -0.23011112     6.4940979      6.4940979      6.4940979      0              0              0              0.80327857   
     17000   1.3514267      0.82690889    -3.262854       0.69841157     1.4615699      1.3354869      1.8363013      1.2129213     -0.36691346    -0.083483197    0.51614333     6.4316392      6.4316392      6.4316392      0              0              0              0.82690889   
     18000   1.3788698      0.80911782    -3.2892423     -0.29274531     0.69034952     0.28685526     0.19491987     1.5892734     -0.20508292     0.32473422    -0.52629125     6.478438       6.478438       6.478438       0              0              0              0.80911782   
     19000   1.2796528      0.78782123    -3.0640185      0.35325769     1.0795976      1.2270235      0.81175203     1.2000172      0.27358956     0.30105753    -0.40437103     6.5362953      6.5362953      6.5362953      0              0              0              0.78782123   
     20000   1.2680516      0.79796835    -3.1514132      0.58312474     1.3362133      1.2611696      1.9394157      0.80805441    -0.93271775     0.26999787    -0.69699925     6.5084715      6.5084715      6.5084715      0              0              0              0.79796835   
     21000   1.3853052      0.80463754    -3.1923857     -0.42450875     0.51226805    -0.013736622    0.70763465     0.84290614     0.35581787     0.17052087     0.090857105    6.4904399      6.4904399      6.4904399      0              0              0              0.80463754   
     22000   1.2751954      0.81615266    -3.081143       0.38789514     1.1617629      1.1870051      0.94845599     1.3498276     -0.04548087     0.66532445     0.44784224     6.4597706      6.4597706      6.4597706      0              0              0              0.81615266   
     23000   1.2220934      0.82043476    -3.2235358      0.87214021     1.6943481      1.3600316      1.6044474      2.1185654     -0.28394888    -0.17967668    -0.13137965     6.4485124      6.4485124      6.4485124      0              0              0              0.82043476   
     24000   1.2199272      0.84206025    -3.4510199     -0.025984806    1.2281018      0.31033709     1.7260739      1.6478942      0.0039306356   0.3193174      0.51855883     6.3928302      6.3928302      6.3928302      0              0              0              0.84206025   
     25000   1.1489265      0.82467812    -3.5006202     -1.2434755      0.40662025     0.17052346     0.077120284    0.972217       0.30334019    -0.25081113     0.093863211    6.4374332      6.4374332      6.4374332      0              0              0              0.82467812   
     26000   1.3598333      0.8233901     -3.425771      -0.39779363     0.74735842     1.0621207      1.0397801      0.14017442    -0.19801207    -0.040748038   -0.17111134     6.4407881      6.4407881      6.4407881      0              0              0              0.8233901    
     27000   1.3004957      0.86149821    -3.717099       0.19621304     1.5446836      2.2642376      0.95105291     1.4187604      0.3804855      0.32882182     0.60800267     6.3443836      6.3443836      6.3443836      0              0              0              0.86149821   
     28000   1.2629978      0.82131816    -3.4505784     -1.6652833     -0.074462972    0.37577324    -0.66898332     0.069821168    0.025848787    0.030638433    0.35065932     6.4461996      6.4461996      6.4461996      0              0              0              0.82131816   
     29000   1.1551437      0.80736404    -3.3775057     -1.0401152      0.45017042     0.049058477    0.52025757     0.78119522     0.20273988    -0.3769957      0.17286074     6.4831255      6.4831255      6.4831255      0              0              0              0.80736404   
     30000   1.263993       0.85773546    -3.4674444      0.63276349     1.7261523      2.2099284      1.5967276      1.371801       0.34888797    -0.080137524   -0.38882532     6.3536473      6.3536473      6.3536473      0              0              0              0.85773546   
     31000   1.2869278      0.83207063    -3.5264348     -0.27558312     1.0061337      1.0934329      1.4302537      0.49471438     0.43095113    -0.14112672     0.095317759    6.4183121      6.4183121      6.4183121      0              0              0              0.83207063   
     32000   1.0536876      0.84927543    -3.6855356     -1.8924462      0.17021071     0.54818043    -0.14128593     0.10373764    -0.72656352    -0.48326009    -0.23239546     6.3746749      6.3746749      6.3746749      0              0              0              0.84927543   
     33000   1.1525131      0.84981341    -3.5403605     -1.0734152      0.57696108     0.76565246     0.67663239     0.28859839     0.2319063      0.50955938    -0.024136216    6.3733294      6.3733294      6.3733294      0              0              0              0.84981341   
     34000   1.2956838      0.80576935    -3.3171747     -0.53348641     0.62255223     0.88811235     0.70782839     0.27171596    -0.55945681     0.71409712     0.76050769     6.4873995      6.4873995      6.4873995      0              0              0              0.80576935   
     35000   1.0787691      0.84202374    -3.4495848      0.5258419      1.8106295      1.9755661      2.4203641      1.0359582      0.4183626     -0.18349927    -0.39663364     6.3929226      6.3929226      6.3929226      0              0              0              0.84202374   
     36000   1.0950021      0.8671445     -3.8060649     -0.37347415     1.4176237      1.8298485      1.7280677      0.69495487    -0.60655074     0.67700842    -0.010500264    6.3305834      6.3305834      6.3305834      0              0              0              0.8671445    
     37000   1.0421425      0.84625999    -3.6630023     -0.99961727     0.85240494     0.65576925     1.0235978      0.87784775    -0.067999077   -0.5665444     -0.36441142     6.3822374      6.3822374      6.3822374      0              0              0              0.84625999   
     38000   1.0680128      0.82305619    -3.3872369     -0.66140561     0.84686665     0.12045718     1.2553441      1.1647987      0.16175091     0.24854629    -0.025338917    6.441659       6.441659       6.441659       0              0              0              0.82305619   
     39000   1.1725849      0.85623419    -3.782884      -0.49694859     1.1954995      1.4588387      1.1692814      0.95837838     0.18132673     0.26402427    -0.083482703    6.3573585      6.3573585      6.3573585      0              0              0              0.85623419   
     40000   1.0498849      0.8539258     -3.7346258     -1.2202891      0.73545023     0.93709943     0.044028537    1.2252227     -0.089720469    0.22240974     0.33518945     6.3630819      6.3630819      6.3630819      0              0              0              0.8539258    
     41000   1.1449699      0.86234252    -3.735246      -0.12922571     1.4872685      1.9830558      1.4643043      1.0144455      0.14622789    -0.5435952      0.13460535     6.3423124      6.3423124      6.3423124      0              0              0              0.86234252   
     42000   1.1979657      0.84563932    -3.6842641     -1.29771        0.4601741      1.3916165     -0.25607057     0.24497637     0.1155375     -0.51126536    -0.29400551     6.3837985      6.3837985      6.3837985      0              0              0              0.84563932   
     43000   1.0540414      0.84276204    -3.6929658     -1.8570431      0.20131752     0.52888951     0.026320573    0.048742465    0.43220661    -0.5392977     -0.48426059     6.3910552      6.3910552      6.3910552      0              0              0              0.84276204   
     44000   1.0999235      0.89400682    -3.8470923     -0.80987807     1.1342333      1.7462189      0.73548178     0.92099918     0.2780484     -0.19472467     0.15403097     6.2665323      6.2665323      6.2665323      0              0              0              0.89400682   
     45000   0.93928534     0.83524619    -3.7887085     -2.1765014      0.15970191     0.2903121      0.070631387    0.11816224     0.42148826    -0.098594982   -0.33099608     6.4101677      6.4101677      6.4101677      0              0              0              0.83524619   
     46000   0.98239576     0.87767799    -3.7996125     -0.63575537     1.3545216      1.0939165      1.0694947      1.9001536     -0.074296325    0.20135272     0.66860291     6.3051558      6.3051558      6.3051558      0              0              0              0.87767799   
     47000   1.1015125      0.85595497    -3.6307134     -0.89951513     0.84598764     1.5818104      0.042563626    0.91358893     0.34855059     0.019529709    0.12888106     6.3580497      6.3580497      6.3580497      0              0              0              0.85595497   
     48000   1.001781       0.88329879    -3.8831645     -0.37437789     1.6169413      1.7228548      1.3915825      1.7363867      0.29577199    -0.11985587    -0.28258358     6.2917532      6.2917532      6.2917532      0              0              0              0.88329879   
     49000   0.94576452     0.88790782    -3.9497314     -0.39552634     1.7295246      2.3976957      1.0580179      1.7328602     -0.40567234     0.29701919    -0.60632561     6.2808478      6.2808478      6.2808478      0              0              0              0.88790782   
     50000   0.98713292     0.8419667     -3.7269728     -1.7150752      0.41225885     0.83137179     0.23626491     0.16913987     0.076757714    0.061945342    0.41893176     6.393067       6.393067       6.393067       0              0              0              0.8419667    
     51000   1.0023433      0.86835653    -3.8715834     -1.5431961      0.65710117     1.2024849      0.43660911     0.33220954     0.18385122     0.77712352     0.29483604     6.3276367      6.3276367      6.3276367      0              0              0              0.86835653   
     52000   1.0419882      0.88210112    -3.876399      -0.96698867     1.0859811      0.99093969     1.4943902      0.77261352    -0.1315414     -0.23207784     0.33450057     6.2945995      6.2945995      6.2945995      0              0              0              0.88210112   
     53000   0.91475267     0.87175616    -4.0135616     -1.4905674      0.91750424     0.5484733      1.254478       0.94956141     0.030524694    0.17103136     0.44712067     6.3194006      6.3194006      6.3194006      0              0              0              0.87175616   
     54000   0.93417029     0.90882321    -3.9476868     -0.40344217     1.7763325      2.1350999      1.7735734      1.4203243     -0.95209012     0.22790027     0.12902335     6.2322915      6.2322915      6.2322915      0              0              0              0.90882321   
     55000   0.94025354     0.87008416    -3.8433373     -0.32022798     1.6767162      1.4668511      1.8863825      1.676915      -0.27082713    -0.55116815     0.41327328     6.3234459      6.3234459      6.3234459      0              0              0              0.87008416   
     56000   0.98590924     0.90176967    -4.1689181     -1.0740731      1.330828       1.7880899      1.0046731      1.1997209     -0.42244586     0.071410493    0.33672625     6.2484987      6.2484987      6.2484987      0              0              0              0.90176967   
     57000   1.0363449      0.87230296    -4.0147103     -1.3436397      0.89159342     0.58585124     0.96474716     1.1241819      0.10761066    -0.31013453     0.22818483     6.3180799      6.3180799      6.3180799      0              0              0              0.87230296   
     58000   0.971196       0.89967521    -4.105442      -0.70491119     1.5957137      2.2740612      1.6988259      0.81425394    -0.55662495    -0.27961411     0.4388103      6.2533438      6.2533438      6.2533438      0              0              0              0.89967521   
     59000   0.93377918     0.90517087    -4.2753815     -2.244443       0.52440093     0.26276036     1.4183027     -0.10786023     0.33594592     0.070111628    0.0038536288   6.2406626      6.2406626      6.2406626      0              0              0              0.90517087   
     60000   0.94454074     0.89107596    -4.2150996     -2.1657262      0.51815769     0.96661641     0.25382752     0.33402915    -0.0059849798   0.6196998     -0.16205163     6.2733953      6.2733953      6.2733953      0              0              0              0.89107596   
     61000   0.9147059      0.92648109    -4.2445295     -0.32219223     2.1537642      1.8026286      2.9620175      1.6966465      0.56330114    -0.022942595   -0.44194795     6.1924433      6.1924433      6.1924433      0              0              0              0.92648109   
     62000   0.96693897     0.90847727    -4.3187684     -2.1716385      0.58140351     0.70345577     0.30768232     0.73307244     0.31803616     0.51445725    -0.52788048     6.2330825      6.2330825      6.2330825      0              0              0              0.90847727   
     63000   0.75573768     0.912236      -4.3036983     -2.4323843      0.61648532     0.50769452     0.82078687     0.52097457    -0.45786887     0.26149292    -0.26156156     6.2245098      6.2245098      6.2245098      0              0              0              0.912236     
     64000   0.8720159      0.91522687    -4.275689      -2.0171879      0.79626184     1.1065214      0.23668001     1.0455842     -0.035340008   -0.14076758     0.51461864     6.2177221      6.2177221      6.2177221      0              0              0              0.91522687   
     65000   0.89530371     0.92489063    -4.3709987     -1.9858514      0.88193075     1.0330454      0.50856411     1.1041828      0.0006382276  -0.4456584     -0.098429191    6.1959908      6.1959908      6.1959908      0              0              0              0.92489063   
     66000   0.88324903     0.90795513    -4.2050837     -1.4624693      1.1756907      1.4700817      0.93994971     1.1170406      0.44562379     0.50701172    -0.33247082     6.2342771      6.2342771      6.2342771      0              0              0              0.90795513   
     67000   0.87177684     0.93307116    -4.4201236     -1.2236486      1.6077224      1.382522       2.1248953      1.3157499     -0.69549899     0.12632712    -0.042616942    6.1778303      6.1778303      6.1778303      0              0              0              0.93307116   
     68000   0.85004402     0.92947546    -4.5782925     -2.6499399      0.55739953     1.3237032      0.46605672    -0.11756136    -0.13648229    -0.077077561    0.077757184    6.1857864      6.1857864      6.1857864      0              0              0              0.92947546   
     69000   0.82648622     0.92648437    -4.4532716     -2.986706       0.19627564     0.019935317    0.29917381     0.26971778     0.16250095    -0.21955508    -0.10416943     6.192436       6.192436       6.192436       0              0              0              0.92648437   
     70000   0.69133972     0.94039797    -4.3073715     -1.1368058      1.8284254      1.9978671      1.1872197      2.3001894      0.24298918    -0.27716153     0.012224819    6.1617442      6.1617442      6.1617442      0              0              0              0.94039797   
     71000   0.78122752     0.91629147    -4.2611614     -2.0654504      0.85775621     1.1527256      0.69243365     0.72810937    -0.3648363      0.53845427     0.0083750708   6.2153131      6.2153131      6.2153131      0              0              0              0.91629147   
     72000   0.78751146     0.93545972    -4.4746934     -1.6503752      1.4023029      1.659772       1.1959472      1.3511895     -0.81916432     0.071507931   -0.4941557      6.1725677      6.1725677      6.1725677      0              0              0              0.93545972   
     73000   0.71730871     0.92789504    -4.4122009     -2.1224218      1.0284416      1.0087777      1.2412035      0.83534359     0.14491694    -0.17767079    -0.36676283     6.1892963      6.1892963      6.1892963      0              0              0              0.92789504   
     74000   0.7081976      0.93558378    -4.5550772     -3.0027621      0.42129346    -0.27464575     0.24447906     1.2940471      0.30245       -0.31108694     0.042473294    6.1722949      6.1722949      6.1722949      0              0              0              0.93558378   
     75000   0.75052367     0.9313654     -4.4803038     -2.4761158      0.74850572     1.0080523      1.5737395     -0.33627463    -0.066925018   -0.18011927    -0.24601314     6.1815994      6.1815994      6.1815994      0              0              0              0.9313654    
     76000   0.82054835     0.95493613    -4.5328599     -1.8468782      1.2686007      1.8788783      0.91257671     1.0143473     -0.54035353    -0.012475424   -0.47604062     6.1303149      6.1303149      6.1303149      0              0              0              0.95493613   
     77000   0.69968391     0.93738429    -4.4912223     -2.4705656      0.83203805     1.5065536      0.93419518     0.055365325   -0.3690635     -0.10880059     0.2199023      6.1683405      6.1683405      6.1683405      0              0              0              0.93738429   
     78000   0.67933349     0.95220086    -4.6301178     -1.5770881      1.7651419      2.4904165      1.3867984      1.4182107     -0.063709845    0.30869803    -0.23557227     6.1361792      6.1361792      6.1361792      0              0              0              0.95220086   
     79000   0.6392742      0.93231165    -4.5634724     -2.8190917      0.66979299     0.25541558     0.59135722     1.1626062      0.070055518   -0.25729259    -0.13718513     6.1795074      6.1795074      6.1795074      0              0              0              0.93231165   
     80000   0.728605       0.95614024    -4.6039404     -1.0881861      2.1107329      2.2480841      1.9568877      2.1272268      0.17276132    -0.25480412    -0.32421742     6.1277405      6.1277405      6.1277405      0              0              0              0.95614024   
     81000   0.70178104     0.94163462    -4.5211016     -2.1469776      1.1357104      0.80910455     0.8289977      1.769029       0.31857324     0.20013949     0.10383103     6.1590456      6.1590456      6.1590456      0              0              0              0.94163462   
     82000   0.62261601     0.97208468    -4.7396321     -1.7824259      1.7921281      2.0419679      1.1219123      2.2125041      0.394711       0.40477993     0.58330571     6.0940525      6.0940525      6.0940525      0              0              0              0.97208468   
     83000   0.62450034     0.97474279    -4.9001        -2.8567555      0.9847363      0.91219671     1.0475317      0.99448053     0.50025698    -0.32232149     0.058871722    6.088508       6.088508       6.088508       0              0              0              0.97474279   
     84000   0.63709666     0.94604401    -4.6918442     -2.6386777      0.9480218      0.82731118     1.2190016      0.79775265     0.35658104     0.18522892     0.58246165     6.1494619      6.1494619      6.1494619      0              0              0              0.94604401   
     85000   0.58701107     0.9601226     -4.729953      -2.3815096      1.2851061      1.3221408      1.2035306      1.3296469     -0.41683423    -0.050628863   -0.52898295     6.1192566      6.1192566      6.1192566      0              0              0              0.9601226    
     86000   0.72570132     0.95386662    -4.8118267     -2.799344       0.80590759     0.74978693     1.0096187      0.65831714     0.095340815    0.23780268     0.035608035    6.1326053      6.1326053      6.1326053      0              0              0              0.95386662   
     87000   0.60092425     0.97917668    -4.8043477     -2.0444138      1.6584177      2.0135194      1.8350257      1.126708      -0.051995821   -0.1303453      0.073499103    6.0793042      6.0793042      6.0793042      0              0              0              0.97917668   
     88000   0.64913391     0.96484943    -4.8927952     -2.5741733      1.1839488      1.2764193      1.0952652      1.1801618      0.2551814      0.080255297   -0.09819833     6.1092474      6.1092474      6.1092474      0              0              0              0.96484943   
     89000   0.60268343     0.97547689    -4.9368722     -3.6774609      0.31916386     0.62280366     0.82823763    -0.49354969     0.80372975     0.36102654    -0.24517423     6.0869803      6.0869803      6.0869803      0              0              0              0.97547689   
     90000   0.55334192     0.98516518    -5.028122      -2.7554896      1.2957337      0.73115238     1.4211507      1.734898       0.20587223     0.61788337    -0.09783959     6.0669611      6.0669611      6.0669611      0              0              0              0.98516518   
     91000   0.54104052     0.97980582    -4.9214135     -2.7056734      1.2543627      1.3234726      0.92952111     1.5100942      0.6082343     -0.0044965546  -0.44374536     6.0780027      6.0780027      6.0780027      0              0              0              0.97980582   
     92000   0.62092913     0.99179054    -5.0647739     -2.7991462      1.2071812      1.5229467      1.0932662      1.0053308      0.40417197    -0.2683178     -0.3322313      6.0534214      6.0534214      6.0534214      0              0              0              0.99179054   
     93000   0.5581449      0.99838113    -5.1382998     -2.7398378      1.420815       0.83533526     1.1676375      2.2594722      0.13245287    -0.50176088    -0.38062269     6.0400719      6.0400719      6.0400719      0              0              0              0.99838113   
     94000   0.48024534     0.9860002     -5.0980119     -3.707805       0.60364795     0.56161731     0.40385353     0.845473      -0.12935384     0.13737702    -0.48602677     6.0652479      6.0652479      6.0652479      0              0              0              0.9860002    
     95000   0.55891475     0.99621008    -5.1303413     -3.6684863      0.56845084     0.056955251    0.49946733     1.1489299      0.041881514    0.10099938    -0.74217452     6.0444564      6.0444564      6.0444564      0              0              0              0.99621008   
     96000   0.51162531     1.0128965     -5.1536528     -2.7492644      1.5108619      1.5055574      1.2352666      1.7917616      0.3786329      0.80074179    -0.074900055    6.0110803      6.0110803      6.0110803      0              0              0              1.0128965    
     97000   0.50627852     1.0166186     -5.2910834     -3.9981237      0.49660804     0.13706986     0.82220768     0.53054659    -0.21156547     0.63033923    -0.31272001     6.0037354      6.0037354      6.0037354      0              0              0              1.0166186    
     98000   0.50059944     0.99388654    -5.2977471     -4.4686883      0.07401215     0.1900703     -0.11058502     0.14255117    -0.2592413     -0.026856922   -0.54078871     6.049163       6.049163       6.049163       0              0              0              0.99388654   
     99000   0.52773325     1.0144145     -5.2775442     -2.6735206      1.6750582      1.7226604      1.333168       1.9693461     -0.49281145     0.17253754    -0.20079514     6.0080806      6.0080806      6.0080806      0              0              0              1.0144145    
    100000   0.50424564     1.0217662     -5.2852398     -3.1546945      1.279956       1.4629606      1.0145979      1.3623094     -0.44888602     0.026512703   -0.40029788     5.9936363      5.9936363      5.9936363      0              0              0              1.0217662    
    101000   0.46226082     1.008153      -5.3058757     -3.8034114      0.74469517     0.63937323     0.76820109     0.82651119    -0.33207846     0.45521775    -0.31338597     6.0204933      6.0204933      6.0204933      0              0              0              1.008153     
    102000   0.46793816     1.0205915     -5.4206119     -3.5345299      1.1019459      1.0194878      0.89574473     1.3906052     -0.48810697     0.48217016     0.060109389    5.995935       5.995935       5.995935       0              0              0              1.0205915    
    103000   0.44738108     1.0186396     -5.3999089     -3.7957276      0.86720036     0.24648907     1.1919339      1.1631782     -0.58954936     0.11308231     0.13072006     5.9997622      5.9997622      5.9997622      0              0              0              1.0186396    
    104000   0.4766006      1.0219938     -5.4093867     -3.5548569      1.0621334      1.2930312      0.99739405     0.89597499    -0.57686299     0.044251597   -0.376404       5.9931913      5.9931913      5.9931913      0              0              0              1.0219938    
    105000   0.48430735     1.0302506     -5.4496885     -3.5815835      1.072656       0.89621589     0.96036755     1.3613845     -0.4568257      0.45562101    -0.49562658     5.9771378      5.9771378      5.9771378      0              0              0              1.0302506    
    106000   0.39477715     1.0173199     -5.4123186     -4.0881578      0.6797139      0.35904555     1.0007008      0.67939534    -0.40214852     0.10201322    -0.28968435     6.0023554      6.0023554      6.0023554      0              0              0              1.0173199    
    107000   0.42209241     1.0230564     -5.448179      -3.703858       1.0364009      0.44922182     0.9865831      1.6733977     -0.28615734     0.42457783    -0.549628       5.9911157      5.9911157      5.9911157      0              0              0              1.0230564    
    108000   0.46403316     1.0324894     -5.4753748     -3.4908061      1.212705       0.74469236     1.4601418      1.4332809     -0.46364507     0.64656476    -0.37623058     5.9728144      5.9728144      5.9728144      0              0              0              1.0324894    
    109000   0.41636569     1.0294773     -5.4638486     -3.7618106      1.0113326      1.0437743      1.1837983      0.80642517    -0.83940994     0.8648286     -0.14100346     5.978634       5.978634       5.978634       0              0              0              1.0294773    
    110000   0.37224609     1.0292447     -5.4812091     -3.8201891      1.0343373      1.1792907      0.78831909     1.1354022     -0.2902514      0.11262254    -0.04705257     5.9790844      5.9790844      5.9790844      0              0              0              1.0292447    
    111000   0.36529086     1.0286163     -5.5662422     -3.8921313      1.0556542      0.71071435     1.1131428      1.3431055     -0.34536492     0.18906576    -0.66102182     5.9803018      5.9803018      5.9803018      0              0              0              1.0286163    
    112000   0.38582629     1.0329638     -5.563487      -4.2186136      0.72216165     0.33327473     0.78146315     1.0517471      0.01490415     0.41719721    -0.1359914      5.9718999      5.9718999      5.9718999      0              0              0              1.0329638    
    113000   0.3624739      1.0365269     -5.5814733     -4.3506575      0.65001885     0.46187687     0.54809693     0.94008276    -0.17445456     0.50424828    -0.41960788     5.9650492      5.9650492      5.9650492      0              0              0              1.0365269    
    114000   0.35665861     1.0359993     -5.5217058     -3.5464277      1.3590099      1.0660961      1.5715808      1.439353       0.32625676     0.37376648    -0.34794562     5.9660617      5.9660617      5.9660617      0              0              0              1.0359993    
    115000   0.40929527     1.0394073     -5.6579249     -3.971993       1.0158399      1.1376507      0.76528435     1.1445846     -0.50329473     0.42891585    -0.74271192     5.959534       5.959534       5.959534       0              0              0              1.0394073    
    116000   0.32262663     1.0408167     -5.613475      -4.0900565      0.98584101     0.84611722     1.0352872      1.0761186      0.023161966    0.23109673    -0.34202814     5.9568429      5.9568429      5.9568429      0              0              0              1.0408167    
    117000   0.3033632      1.0318039     -5.6550499     -4.9386292      0.2473057     -0.34901185     0.31222972     0.77869924    -0.00073613963  0.13688254    -0.18537453     5.974137       5.974137       5.974137       0              0              0              1.0318039    
    118000   0.29579244     1.039468      -5.6094617     -4.2647939      0.85349546     0.39295641     0.91754987     1.2499801     -0.0024470571   0.32298659    -0.12599334     5.959418       5.959418       5.959418       0              0              0              1.039468     
    119000   0.31213901     1.0503774     -5.6327517     -3.4950708      1.5963955      1.4614338      1.7983738      1.5293789      0.18313263     0.74377181    -0.57355826     5.9387144      5.9387144      5.9387144      0              0              0              1.0503774    
    120000   0.31991626     1.0417996     -5.662018      -4.1162043      1.0118135      1.0835145      1.0926496      0.85927641    -0.29298709     0.35440249    -0.1717322      5.9549689      5.9549689      5.9549689      0              0              0              1.0417996    
    121000   0.30454016     1.0402568     -5.7103351     -4.8148018      0.41705512     0.36034828     0.66415463     0.22666245    -0.35172977     0.20168282    -0.52514391     5.9579114      5.9579114      5.9579114      0              0              0              1.0402568    
    122000   0.26783819     1.050095      -5.7411177     -4.2719624      1.0208898      0.81496686     0.98495759     1.2627449     -0.55761268     0.66626462    -0.36607732     5.9392467      5.9392467      5.9392467      0              0              0              1.050095     
    123000   0.28791722     1.04686       -5.7223967     -4.1959674      1.0437316      1.2049907      0.89311192     1.0330922     -0.22043947     0.49240659    -0.26182016     5.9453582      5.9453582      5.9453582      0              0              0              1.04686      
    124000   0.26243982     1.0447487     -5.7554335     -4.5597754      0.76358464     0.44993772     0.57227027     1.2685459     -0.66112628     0.084163188   -0.187036       5.9493604      5.9493604      5.9493604      0              0              0              1.0447487    
    125000   0.252707       1.0561421     -5.7255557     -3.9605855      1.3324721      0.9553259      1.3587888      1.6833014     -0.52373538     0.42284878    -0.052517463    5.9278896      5.9278896      5.9278896      0              0              0              1.0561421    
    126000   0.25218289     1.0506391     -5.7734447     -4.3827301      0.96881498     0.58940459     1.0630717      1.2539686     -0.50819472     0.22153656    -0.28874596     5.9382213      5.9382213      5.9382213      0              0              0              1.0506391    
    127000   0.21810148     1.0483183     -5.7722317     -4.4761943      0.92492265     0.47454903     0.84747554     1.4527434     -0.49220499     0.20744515    -0.23326676     5.9426001      5.9426001      5.9426001      0              0              0              1.0483183    
    128000   0.24321237     1.0573611     -5.8361551     -4.2983248      1.129296       0.93974889     1.0888424      1.3592968     -0.31824199     0.21037768    -0.31293646     5.9256107      5.9256107      5.9256107      0              0              0              1.0573611    
    129000   0.20835762     1.0533705     -5.8187553     -4.8511732      0.62877446     0.22012845     0.8571285      0.80906642    -0.30157771     0.36032088    -0.0021078531   5.9330841      5.9330841      5.9330841      0              0              0              1.0533705    
    130000   0.19256131     1.0559577     -5.8258177     -4.8658332      0.64565737     0.64818988     0.53786373     0.75091851    -0.55350874     0.42505785    -0.38784376     5.9282347      5.9282347      5.9282347      0              0              0              1.0559577    
    131000   0.17661481     1.0577044     -5.8567171     -4.5127617      1.0388175      0.81502581     1.0695225      1.2319042     -0.4602975      0.33957142    -0.47780066     5.9249696      5.9249696      5.9249696      0              0              0              1.0577044    
    132000   0.19029472     1.0575467     -5.844347      -4.4537082      1.0639149      0.97756037     0.86983676     1.3443477     -0.45929722     0.53410867    -0.37991577     5.9252641      5.9252641      5.9252641      0              0              0              1.0575467    
    133000   0.16559963     1.061506      -5.8780495     -4.5719869      1.0218492      0.66972344     0.95830934     1.4375149     -0.14232704     0.18616976    -0.50307622     5.9178881      5.9178881      5.9178881      0              0              0              1.061506     
    134000   0.16693988     1.0655524     -5.9044531     -4.3685689      1.2464314      0.94077051     1.4466361      1.3518875     -0.35452487    -0.002125829   -0.46613138     5.9103874      5.9103874      5.9103874      0              0              0              1.0655524    
    135000   0.15206628     1.0640962     -5.9305668     -4.8096569      0.86477252     0.67711622     0.80084363     1.1163577     -0.35201371     0.31946955    -0.352326       5.9130824      5.9130824      5.9130824      0              0              0              1.0640962    
    136000   0.13895725     1.0564119     -5.9214953     -4.9612788      0.72299178     0.51926022     0.82644815     0.82326695    -0.38508747     0.46973804    -0.4249016      5.927385       5.927385       5.927385       0              0              0              1.0564119    
    137000   0.12834171     1.0683777     -5.9427009     -4.6590784      1.0606781      0.47669178     1.2349552      1.4703874     -0.4391102      0.22144109    -0.20227019     5.9051729      5.9051729      5.9051729      0              0              0              1.0683777    
    138000   0.13544032     1.0690845     -5.9378291     -4.4949845      1.2058301      0.82851605     1.2349641      1.5540101     -0.54770234    -0.067596324   -0.3909076      5.9038713      5.9038713      5.9038713      0              0              0              1.0690845    
    139000   0.11429357     1.0630953     -5.9769681     -4.9949944      0.78416862     0.28110295     0.77430653     1.2970964     -0.57446333     0.34214023    -0.22036125     5.9149376      5.9149376      5.9149376      0              0              0              1.0630953    
    140000   0.094359266    1.067565      -5.99429       -4.9710308      0.85640832     0.64194183     0.87770222     1.0495809     -0.62672664     0.20034183    -0.42308095     5.9066711      5.9066711      5.9066711      0              0              0              1.067565     
Loop time of 81.2539 on 1 procs for 140000 steps with 200 atoms

Performance: 297733.321 tau/day, 1722.994 timesteps/s
49.9% CPU use with 1 MPI tasks x 1 OpenMP threads

MPI task timing breakdown:
Section |  min time  |  avg time  |  max time  |%varavg| %total
---------------------------------------------------------------
Pair    | 71.684     | 71.684     | 71.684     |   0.0 | 88.22
Bond    | 0.98689    | 0.98689    | 0.98689    |   0.0 |  1.21
Neigh   | 0.37506    | 0.37506    | 0.37506    |   0.0 |  0.46
Comm    | 4.2327     | 4.2327     | 4.2327     |   0.0 |  5.21
Output  | 0.91495    | 0.91495    | 0.91495    |   0.0 |  1.13
Modify  | 2.3019     | 2.3019     | 2.3019     |   0.0 |  2.83
Other   |            | 0.7583     |            |       |  0.93

Nlocal:            200 ave         200 max         200 min
Histogram: 1 0 0 0 0 0 0 0 0 0
Nghost:           4398 ave        4398 max        4398 min
Histogram: 1 0 0 0 0 0 0 0 0 0
Neighs:          63928 ave       63928 max       63928 min
Histogram: 1 0 0 0 0 0 0 0 0 0

Total # of neighbors = 63928
Ave neighs/atom = 319.64
Ave special neighs/atom = 8.21
Neighbor list builds = 112
Dangerous builds = 0
System init for write_data ...
Generated 0 of 1 mixed pair_coeff terms from geometric mixing rule
WARNING: Not all mixed pair coeffs generated from mixing. Use write_data with 'pair ij' option to store all pair coeffs. (src/write_data.cpp:309)
Total wall time: 0:01:21
