LAMMPS (23 Jun 2022)
OMP_NUM_THREADS environment is not set. Defaulting to 1 thread. (src/comm.cpp:98)
  using 1 OpenMP thread(s) per MPI task
Reading data file ...
  orthogonal box = (0 0 0) to (200 200 200)
  2 by 2 by 3 MPI processor grid
  reading atoms ...
  200 atoms
  scanning bonds ...
  1 = max bonds/atom
  reading bonds ...
  80 bonds
Finding 1-2 1-3 1-4 neighbors ...
  special bond factors lj:    0        0        0       
  special bond factors coul:  0        0        0       
     1 = max # of 1-2 neighbors
     0 = max # of 1-3 neighbors
     0 = max # of 1-4 neighbors
     1 = max # of special neighbors
  special bonds CPU = 0.001 seconds
  read_data CPU = 0.006 seconds
Generated 0 of 1 mixed pair_coeff terms from geometric mixing rule
Neighbor list info ...
  update every 1 steps, delay 0 steps, check yes
  max neighbors/atom: 2000, page size: 100000
  master list distance cutoff = 5.5
  ghost atom cutoff = 5.5
  binsize = 2.75, bins = 73 73 73
  1 neighbor lists, perpetual/occasional/extra = 1 0 0
  (1) pair lj/cut, perpetual
      attributes: half, newton on
      pair build: half/bin/newton
      stencil: half/bin/3d
      bin: standard
Setting up Verlet run ...
  Unit style    : lj
  Current step  : 0
  Time step     : 0.002
Per MPI rank memory allocation (min/avg/max) = 6.325 | 6.364 | 6.44 Mbytes
   Step          Temp         Density         PotEng        Enthalpy        Press           Pxx            Pyy            Pzz            Pxy            Pxz            Pyz             Lx             Ly             Lz             Xy             Yz             Xz          Density    
         0   1              2.75e-05       2.2913944e-28  2.4875         2.4875e-05     2.4540872e-05  2.7057051e-05  2.3027077e-05 -8.5634887e-07  1.0219777e-06  4.891355e-07   200            200            200            0              0              0              2.75e-05     
       100   2.5460692      0.00020837979  4.84198       -3.056329      -0.0022160845  -0.0064438455  -9.1411273e-05 -0.00011299676 -0.00011418486  0.00013728392 -2.0090717e-05  101.8253       101.8253       101.8253       0              0              0              0.00020837979
       200   4.2640173      0.00048094567  1.6515352      17.205317      0.0040179672   0.0058416615   0.0033636118   0.0028486284  -4.2624545e-05 -8.577244e-05   7.8886212e-05  77.050516      77.050516      77.050516      0              0              0              0.00048094567
       300   3.4131479      0.00083253559  0.099713088    9.1496252      0.002993941    0.0036023092   0.0028620686   0.0025174451  -3.7716997e-05 -8.1458751e-05  5.1885997e-05  64.17117       64.17117       64.17117       0              0              0              0.00083253559
       400   2.6454418      0.001251836    1.5597349      0.79787674    -0.0053603389  -0.0047231016  -0.0061108328  -0.0052470822  -0.00027064329 -0.00032598899 -8.6244872e-05  56.013376      56.013376      56.013376      0              0              0              0.001251836  
       500   1.8211553      0.0017357721   1.6585002      11.439403      0.011144964    0.010011278    0.013099019    0.010324597   -0.00047519167  0.00056865053  8.1872204e-05  50.231559      50.231559      50.231559      0              0              0              0.0017357721 
       600   1.8911345      0.0022800122   0.34647015     2.2670947     -0.0018693896  -0.0020546286  -0.0024169271  -0.0011366131   0.00019888846 -0.00042662374 -0.0002060839   45.866455      45.866455      45.866455      0              0              0              0.0022800122 
       700   1.9963951      0.0028744011   0.26854197     2.5939395     -0.0017095428  -0.00071736467 -0.0024885672  -0.0019226964  -0.00045472028 -0.00030323931  0.00011780694  42.457893      42.457893      42.457893      0              0              0              0.0028744011 
       800   0.99673467     0.0035284237   0.98997599     7.7977878      0.017065334    0.016049711    0.020180563    0.01496573    -0.00089330158  0.0012478034   0.00012883414  39.65342       39.65342       39.65342       0              0              0              0.0035284237 
       900   0.95546835     0.0042288337   0.68241421    -1.4230995     -0.013576671   -0.013639786   -0.01631579    -0.010774439    0.00098299632 -0.001532596   -0.000382292    37.330805      37.330805      37.330805      0              0              0              0.0042288337 
      1000   1.428908       0.0049741604   0.054398739    4.0514108      0.0084306001   0.0081118252   0.010190808    0.0069891674  -0.0014443494   0.00051070678  0.00024572934  35.364509      35.364509      35.364509      0              0              0              0.0049741604 
      1100   0.92196318     0.0057767844   0.34859293     5.3661051      0.019123689    0.021437635    0.020567073    0.015366358   -0.0010392737   0.0013479406   0.0001185018   33.644352      33.644352      33.644352      0              0              0              0.0057767844 
      1200   0.6901984      0.0066113096   0.69116834    -2.3087135     -0.024221452   -0.029726903   -0.025495571   -0.017441882    0.0014814215  -0.0022011932  -0.00059271068  32.164618      32.164618      32.164618      0              0              0              0.0066113096 
      1300   1.018302       0.0074955467   0.24170792     4.9925523      0.02201666     0.024882878    0.024245734    0.016921368   -0.0021899488   0.00089523197  0.00039452271  30.84654       30.84654       30.84654       0              0              0              0.0074955467 
      1400   1.0331432      0.0084294471  -0.0040841012   3.3202712      0.013658685    0.018603799    0.012334198    0.010038058   -0.00059418879  0.0008030161   0.000150664    29.662508      29.662508      29.662508      0              0              0              0.0084294471 
      1500   0.88107346     0.0093838012   0.41045137    -1.0981022     -0.024086987   -0.037351527   -0.020955679   -0.013953756    0.0011983838  -0.0010538097   0.00015037515  28.620769      28.620769      28.620769      0              0              0              0.0093838012 
      1600   0.84732937     0.010398572    0.46770899     5.5229425      0.035833426    0.04640187     0.034480574    0.026617834   -0.0031024099  -0.00022419637  5.2460204e-05  27.657717      27.657717      27.657717      0              0              0              0.010398572  
      1700   1.0950572      0.011447502    0.036571381    1.4247954     -0.0025616276  -0.0040989534  -0.003659719    7.3789479e-05  0.00049488214  0.00051957119  0.00058250492  26.785761      26.785761      26.785761      0              0              0              0.011447502  
      1800   1.1820799      0.012516456    0.11220511     1.0042126     -0.009924943   -0.024293655   -0.00036028762 -0.0051208867   0.0012814695   0.00052687699  0.00096790016  26.000424      26.000424      26.000424      0              0              0              0.012516456  
      1900   0.9169037      0.013652229    0.44423458     5.7526565      0.048899096    0.069224488    0.040893478    0.036579323   -0.0068094501  -0.00050806052  0.0001435502   25.258431      25.258431      25.258431      0              0              0              0.013652229  
      2000   0.98907498     0.01480114     0.29132292    -0.17258304    -0.026105178   -0.040055631   -0.024085527   -0.014174377    0.0029139077   0.0035980333  -0.0025098588   24.587206      24.587206      24.587206      0              0              0              0.01480114   
      2100   1.2381471      0.015985071   -0.018646378    2.757535       0.013489174    0.012208437    0.017241356    0.01101773    -0.0016463744  -0.00092216548  0.0031210114   23.964555      23.964555      23.964555      0              0              0              0.015985071  
      2200   0.978813       0.017232052    0.2025863      4.8632847      0.050126786    0.070527742    0.041379374    0.038473243   -0.004564716   -0.0030470601   0.0001316382   23.371965      23.371965      23.371965      0              0              0              0.017232052  
      2300   0.83634775     0.018475633    0.36989902    -1.1259908     -0.046090638   -0.073302799   -0.037467464   -0.027501649    0.002037928    0.0021635784  -0.0015012189   22.835356      22.835356      22.835356      0              0              0              0.018475633  
      2400   1.0606991      0.019774317    0.037445863    3.8627604      0.040307627    0.052781707    0.037032567    0.031108609   -0.0059811016  -0.0017764119  -0.0014302681   22.324088      22.324088      22.324088      0              0              0              0.019774317  
      2500   1.011631       0.021120943   -0.017147704    3.4587694      0.037749996    0.049397934    0.027804684    0.03604737    -0.0019213619  -0.00062887499 -0.0039586264   21.839187      21.839187      21.839187      0              0              0              0.021120943  
      2600   0.84460166     0.022456126    0.27814068    -0.87478296    -0.04927061    -0.077244409   -0.032442906   -0.038124515   -0.00067932006  0.00036491912  0.0048017095   21.397479      21.397479      21.397479      0              0              0              0.022456126  
      2700   0.92067288     0.023867295    0.18578389     4.5734892      0.065387732    0.082987521    0.057140666    0.056035009   -0.0026460637  -0.00013446656  0.0014474625   20.96717       20.96717       20.96717       0              0              0              0.023867295  
      2800   1.0494056      0.02530024    -0.037891981    2.0632511      0.012302939    0.0098766465   0.0083006545   0.018731517   -0.0015828454   0.00020537714 -0.002488275    20.563609      20.563609      20.563609      0              0              0              0.02530024   
      2900   1.032877       0.026728738    0.10310409     0.32386148    -0.032094204   -0.041676897   -0.021844071   -0.032761643   -0.0043904824  -0.0026761345   0.0023746127   20.190547      20.190547      20.190547      0              0              0              0.026728738  
      3000   0.97150722     0.028242534    0.20941474     5.090569       0.088095644    0.10805614     0.072084377    0.084146411    0.0003567943   0.0062078853   0.0040829088   19.823166      19.823166      19.823166      0              0              0              0.028242534  
      3100   1.0566612      0.029744955    0.061574214    0.93632808    -0.018991153   -0.033756504   -0.0099154509  -0.013301503    0.00040664806 -0.0063521578  -0.0086093984   19.483626      19.483626      19.483626      0              0              0              0.029744955  
      3200   1.1610745      0.03126686    -0.049907717    1.8292998      0.0041585999   0.0078983549   0.0086719771  -0.0040945323  -0.013882905    0.0011762303   0.0012336593   19.162234      19.162234      19.162234      0              0              0              0.03126686   
      3300   0.9943634      0.03287524     0.096340307    4.5891696      0.089921011    0.094473002    0.084423633    0.090866396   -0.00057204566  0.00017520181  0.008519562    18.844498      18.844498      18.844498      0              0              0              0.03287524   
      3400   0.94174737     0.034451365    0.09949086    -0.28881759    -0.056182859   -0.07091289    -0.05281711    -0.044818577    0.0018633196  -0.0085661158  -0.009909886    18.552627      18.552627      18.552627      0              0              0              0.034451365  
      3500   1.0666161      0.036085751   -0.12077503     2.7581641      0.04222081     0.047777958    0.042869705    0.036014767   -0.0067696818  -0.0016740104   0.0035868413   18.268195      18.268195      18.268195      0              0              0              0.036085751  
      3600   1.0046825      0.037772441   -0.13650942     3.3026722      0.066606307    0.0624746      0.068111583    0.06923274    -0.0017774088  -0.0038411102   0.0065628777   17.992129      17.992129      17.992129      0              0              0              0.037772441  
      3700   0.86979809     0.039429827    0.033192609   -0.45573452    -0.064059159   -0.051705102   -0.076383988   -0.064088387   -0.004461667    0.0070444255   0.0018505305   17.736419      17.736419      17.736419      0              0              0              0.039429827  
      3800   0.96789796     0.041170264   -0.12178811     3.2123042      0.070719459    0.07451048     0.078572826    0.059075072   -0.0095039555  -0.0049941615  -0.0071673441   17.482881      17.482881      17.482881      0              0              0              0.041170264  
      3900   1.0007452      0.042928917   -0.20567412     2.4358748      0.044799711    0.030920324    0.058139618    0.045339191   -0.018228608   -0.0058357917  -0.00038584261  17.240807      17.240807      17.240807      0              0              0              0.042928917  
      4000   0.96053119     0.044658174   -0.093099       0.23473585    -0.044891937   -0.042064514   -0.039563533   -0.053047763    0.0010968324   0.002161547    0.018666072    17.015338      17.015338      17.015338      0              0              0              0.044658174  
      4100   0.97064696     0.046487967   -0.080855473    3.5846506      0.093686585    0.086536345    0.097861576    0.096661835    0.004409298   -0.0077371064  -0.0071211475   16.789098      16.789098      16.789098      0              0              0              0.046487967  
      4200   1.0434064      0.048309995   -0.18136604     1.4992108      0.0054147934   0.0079326244   0.019388638   -0.011076882   -0.022647312   -0.0049146106  -0.0021197586   16.575319      16.575319      16.575319      0              0              0              0.048309995  
      4300   1.0577613      0.050136402   -0.1523008      0.97839176    -0.020419928   -0.021829076   -0.018814659   -0.020616048   -0.0022033681   0.011987079   -0.0046278741   16.371552      16.371552      16.371552      0              0              0              0.050136402  
      4400   1.0383041      0.052054695   -0.13837479     3.6029488      0.10371447     0.10448149     0.1052915      0.10137042     0.0062818319  -0.0073367034   0.0049752888   16.167924      16.167924      16.167924      0              0              0              0.052054695  
      4500   1.035519       0.053935041   -0.16786305     0.89159046    -0.023832356   -0.019364809   -0.021285574   -0.030846685   -0.0039035522  -0.0098897503  -0.0037644843   15.977809      15.977809      15.977809      0              0              0              0.053935041  
      4600   1.0662505      0.055854423   -0.2428524      1.5559259      0.010531064    0.0099632233  -0.002511935    0.024141905    0.0022571431   0.0046875128  -0.0078334472   15.792651      15.792651      15.792651      0              0              0              0.055854423  
      4700   1.0235934      0.05784737    -0.26658625     2.9961553      0.091242572    0.099698821    0.098408036    0.075620858    0.0036199309  -0.00388606     2.0400044e-05  15.609166      15.609166      15.609166      0              0              0              0.05784737   
      4800   0.95699953     0.059797461   -0.23853829     0.73555797    -0.024692304   -0.045831816   -0.022038301   -0.0062067951   0.00032361956 -0.016964163    0.0082984897   15.437607      15.437607      15.437607      0              0              0              0.059797461  
      4900   1.0072644      0.061809018   -0.36907352     1.6547787      0.029247471    0.051972603    0.023132366    0.012637443   -0.012172807    0.0084092749  -0.0041739757   15.268286      15.268286      15.268286      0              0              0              0.061809018  
      5000   0.91627668     0.063881816   -0.30352679     2.4266382      0.079133428    0.094397304    0.078989722    0.064013256   -0.0034351274  -0.0044894015   0.018431272    15.101328      15.101328      15.101328      0              0              0              0.063881816  
      5100   0.91220485     0.065911585   -0.31300799     0.40692821    -0.038440208   -0.038554959   -0.046232372   -0.030533292   -0.023333056    0.035087648    0.012351528    14.944692      14.944692      14.944692      0              0              0              0.065911585  
      5200   0.96203666     0.068020069   -0.37407018     2.0155628      0.058979164    0.075948974    0.051928885    0.049059632   -0.0085194219  -0.0094704341  -0.00083102672  14.78865       14.78865       14.78865       0              0              0              0.068020069  
      5300   0.98252912     0.070148433   -0.38486564     2.0453729      0.061463666    0.068443985    0.075525663    0.04042135     0.017444074   -0.0078701683   0.014811849    14.637545      14.637545      14.637545      0              0              0              0.070148433  
      5400   0.97803333     0.072239831   -0.32265779     0.62594035    -0.033566343   -0.034041352   -0.048372077   -0.018285599    0.015442831   -0.014404297    0.023353943    14.494903      14.494903      14.494903      0              0              0              0.072239831  
      5500   1.0156512      0.074424415   -0.33432537     2.3819982      0.08122167     0.077090055    0.067039099    0.099535858    0.0067852519   0.0094094387  -0.0013045674   14.351669      14.351669      14.351669      0              0              0              0.074424415  
      5600   1.0751965      0.076603258   -0.40622543     1.5177254      0.022230276    0.044970501    0.036698247   -0.014977919   -0.0014970716  -0.016602747   -0.017957901    14.214289      14.214289      14.214289      0              0              0              0.076603258  
      5700   1.0498724      0.07878202    -0.36178548     1.3091705      0.0074500155  -0.0052551797  -0.0010425263   0.028647753   -0.0012851194   0.02971045    -0.011091294    14.082028      14.082028      14.082028      0              0              0              0.07878202   
      5800   1.0375528      0.08102868    -0.38285471     2.0767992      0.067114316    0.041613587    0.089223631    0.070505729    0.0039425567   0.016520251   -0.0076921717   13.950656      13.950656      13.950656      0              0              0              0.08102868   
      5900   1.0203882      0.083277367   -0.42066557     1.3056022      0.015394085    0.0030859098   0.006278115    0.03681823    -0.0077501291  -0.019343638    0.0031054844   13.823942      13.823942      13.823942      0              0              0              0.083277367  
      6000   0.97935886     0.085547962   -0.41699807     1.1428057      0.0076301538  -0.020442025    0.023289672    0.020042814    0.0071762683   0.021002353   -0.022682579    13.70054       13.70054       13.70054       0              0              0              0.085547962  
      6100   0.94783424     0.087884155   -0.42267648     1.7436598      0.060056327    0.035990235    0.064374748    0.079803998   -0.035475597    0.023514987    0.0050762619   13.578049      13.578049      13.578049      0              0              0              0.087884155  
      6200   0.95043063     0.090200211   -0.45584311     0.89191017    -0.0058026973  -0.00024342079 -0.003488135   -0.013676536    0.006299247   -0.048610315   -0.015984483    13.460826      13.460826      13.460826      0              0              0              0.090200211  
      6300   1.0137343      0.092580455   -0.56649371     1.1183511      0.014463285    0.0051522163   0.015501114    0.022736524    0.00090350676  0.012297095    0.012750178    13.344464      13.344464      13.344464      0              0              0              0.092580455  
      6400   0.98785978     0.094998252   -0.54233565     1.5757849      0.055594692    0.080030244    0.041508081    0.04524575     0.013554791    0.056704732    0.021786616    13.23028       13.23028       13.23028       0              0              0              0.094998252  
      6500   1.016992       0.097365431   -0.59353438     0.90594422    -0.0016270607  -0.028145205   -0.010013706    0.03327773    -0.026277784   -0.037690126    0.012123023    13.122179      13.122179      13.122179      0              0              0              0.097365431  
      6600   1.0226956      0.099810496   -0.62588244     1.5426191      0.058264675    0.037877984    0.099038868    0.037877172    0.025393224   -0.014601694   -0.028901591    13.01414       13.01414       13.01414       0              0              0              0.099810496  
      6700   1.0410027      0.10223663    -0.68468839     1.3222599      0.042126306   -0.0001436468   0.069801862    0.056720704   -0.022183051    0.035295239   -0.022289931    12.910371      12.910371      12.910371      0              0              0              0.10223663   
      6800   1.0021403      0.10469212    -0.6789003      0.78771267    -0.0027678079  -0.0088152721  -0.010786273    0.011298122   -0.022125996    0.03593471    -0.0074991993   12.808636      12.808636      12.808636      0              0              0              0.10469212   
      6900   0.98890059     0.10721266    -0.719688       0.8480631      0.0089490372   0.030156133   -0.0070877434   0.003778722    0.019490833   -0.02413661    -9.9020331e-05  12.707464      12.707464      12.707464      0              0              0              0.10721266   
      7000   0.96814538     0.10975469    -0.73757666     1.1117409      0.040345883    0.0010274859   0.074022732    0.045987431   -0.0010187506  -0.012172268    0.019584153    12.60859       12.60859       12.60859       0              0              0              0.10975469   
      7100   0.90929279     0.11228136    -0.67209434     0.74075136     0.0056881952   0.019331799    0.0035040643  -0.0057712778  -0.0045669821   0.021916473   -0.039033242    12.513295      12.513295      12.513295      0              0              0              0.11228136   
      7200   0.91309257     0.11488237    -0.67373634     0.79629542     0.011200101   -0.040299326    0.017118059    0.056781571    0.034037036    0.017336196    0.029549159    12.418137      12.418137      12.418137      0              0              0              0.11488237   
      7300   0.97319764     0.11748271    -0.71683372     0.91349696     0.018993024    0.011400056    0.067533975   -0.021954959    0.0058375183   0.0055676384  -0.014440944    12.325832      12.325832      12.325832      0              0              0              0.11748271   
      7400   1.0378289      0.12012134    -0.7557552      1.3689198      0.062868827    0.031732638    0.064888112    0.091985731    0.01199249     0.04306489     0.02983868     12.234912      12.234912      12.234912      0              0              0              0.12012134   
      7500   1.0979392      0.12267945    -0.79387487     1.2225135      0.042125226   -0.018444529    0.12246895     0.022351255    0.011844873   -0.044706326   -0.0036508946   12.149273      12.149273      12.149273      0              0              0              0.12267945   
      7600   1.1519237      0.12525153    -0.86978952     1.6183967      0.087555397    0.096140289    0.038576117    0.12794978     0.044183907   -0.011801163   -0.035136829    12.065534      12.065534      12.065534      0              0              0              0.12525153   
      7700   1.0714143      0.12784449    -0.80670095     0.93493418     0.016567408   -0.00049679564  0.0099159889   0.040283032   -0.035384485    0.026061568    0.010235928    11.983404      11.983404      11.983404      0              0              0              0.12784449   
      7800   1.0311956      0.13048851    -0.83145471     0.69804813    -0.0011336659  -0.022038231    0.055710288   -0.037073054    0.045309086   -0.015274416   -0.013137093    11.901914      11.901914      11.901914      0              0              0              0.13048851   
      7900   0.96841733     0.13322906    -0.83529554     1.4147157      0.097456864    0.14716797     0.029616949    0.11558567    -0.015086043    0.006105435    0.024001985    11.819739      11.819739      11.819739      0              0              0              0.13322906   
      8000   0.92383652     0.1359576     -0.85074206    -0.0019964755  -0.065516781   -0.079695217   -0.035301839   -0.081553288   -0.040240986    0.017299002   -0.00064818439  11.740134      11.740134      11.740134      0              0              0              0.1359576    
      8100   0.93785472     0.13878722    -0.92090928     0.6873788      0.026311523    0.037416544    0.032622215    0.0088958106   0.030285174    0.031210902   -0.010978471    11.659799      11.659799      11.659799      0              0              0              0.13878722   
      8200   0.96163064     0.14157367    -0.97687328     1.025545       0.07299854     0.090207359    0.07378291     0.055005351   -0.015392352    0.0070986858   0.047774421    11.582796      11.582796      11.582796      0              0              0              0.14157367   
      8300   0.91051512     0.14433868    -0.89702305     0.35154697    -0.014482916   -0.019862121   -0.015859831   -0.0077267971  -0.046254015   -0.074299716   -0.054913524    11.508357      11.508357      11.508357      0              0              0              0.14433868   
      8400   0.95380545     0.14717821    -0.93119478     0.83280734     0.04555132     0.059039212   -0.016128193    0.093742941    0.058474314   -0.0005759341  -0.0083878255   11.433865      11.433865      11.433865      0              0              0              0.14717821   
      8500   1.0040351      0.15004965    -0.95635484     0.76720798     0.030697495   -0.019170979    0.11147317    -0.00020970794 -0.042603774   -0.030809537   -0.061759694    11.360459      11.360459      11.360459      0              0              0              0.15004965   
      8600   1.0063027      0.15289664    -0.90204978     1.1274602      0.07333524     0.071576127    0.048558217    0.099871374   -0.041352217   -0.032288698    0.015949271    11.289505      11.289505      11.289505      0              0              0              0.15289664   
      8700   1.0304717      0.15570548    -0.89171915     1.7752177      0.15980446     0.11648984     0.12090161     0.24202195     0.025381342   -0.015922961    0.046300967    11.221208      11.221208      11.221208      0              0              0              0.15570548   
      8800   1.025718       0.15843457    -0.85767954     0.29574242    -0.054366413   -0.068052031   -0.060709373   -0.034337835   -0.043625588    0.011055307   -0.036598379    11.156404      11.156404      11.156404      0              0              0              0.15843457   
      8900   0.99933414     0.1613711     -0.80866003     1.1774284      0.072555706    0.14738529     0.067200302    0.0030815259  -0.023926225    0.0048902745   0.018196095    11.088317      11.088317      11.088317      0              0              0              0.1613711    
      9000   1.0160921      0.16440898    -0.84076146     0.74504287     0.010355792   -0.13503044     0.08315285     0.082944968    0.028810656   -0.01487109    -0.013969023    11.019597      11.019597      11.019597      0              0              0              0.16440898   
      9100   1.0705914      0.16738663    -0.92333828     0.57949885    -0.014459238    0.061561246   -0.054892983   -0.050045977    0.00050242075  0.055826163   -0.042585938    10.953863      10.953863      10.953863      0              0              0              0.16738663   
      9200   1.1148097      0.17040196    -1.039461       1.7442225      0.17347386     0.1468423      0.25643149     0.11714778    -0.023706728    0.027408451    0.020666949    10.888867      10.888867      10.888867      0              0              0              0.17040196   
      9300   1.0666748      0.17332374    -1.0649779      0.16346136    -0.057287093   -0.011779502   -0.15187622    -0.0082055613  -0.0098112619  -0.0086842918  -0.047744042    10.827334      10.827334      10.827334      0              0              0              0.17332374   
      9400   1.0375311      0.17630513    -1.1349247      0.40225295    -0.0018171357  -0.054985426   -0.031259247    0.080793266   -0.034377625   -0.052139243    0.004318395    10.765955      10.765955      10.765955      0              0              0              0.17630513   
      9500   0.95951588     0.17943977    -1.1418005      1.1696652      0.14345201     0.16426763     0.19118214     0.074906269    0.044849416    0.026629264    0.070248865    10.702897      10.702897      10.702897      0              0              0              0.17943977   
      9600   0.95225631     0.18248037    -1.2198849     -0.26110854    -0.076719087   -0.14429721    -0.09133661     0.0054765587  -0.010733757    0.062906834   -0.014859145    10.643117      10.643117      10.643117      0              0              0              0.18248037   
      9700   0.9396397      0.18562469    -1.2646184      0.13497059    -0.00047641894 -0.011984676    0.027608154   -0.017052735    0.044196641   -0.036717272    0.080627884    10.58268       10.58268       10.58268       0              0              0              0.18562469   
      9800   1.0180228      0.18873298    -1.41897        0.66051107     0.096096315    0.034383332    0.098559172    0.15534644     0.011283165    0.025953725   -0.029545606    10.524261      10.524261      10.524261      0              0              0              0.18873298   
      9900   0.9606177      0.19174724    -1.3644671      0.12027768     0.0088940817  -0.064684517    0.0098637185   0.081503043    0.0022393456  -0.05475271     0.017461416    10.468823      10.468823      10.468823      0              0              0              0.19174724   
     10000   0.97343444     0.1948697     -1.4077713      0.75427373     0.12563677     0.11907488     0.099868567    0.15796686    -0.037990053   -0.082651286   -0.063225546    10.412607      10.412607      10.412607      0              0              0              0.1948697    
     10100   1.0109682      0.19794716    -1.4823842     -0.079514145   -0.019074894   -0.051235561    0.012065726   -0.018054848    0.049262724   -0.0092023018  -0.00029382059  10.358363      10.358363      10.358363      0              0              0              0.19794716   
     10200   0.99534041     0.20124468    -1.4853525     -0.024495204   -0.0045167135  -0.056932553    0.034118639    0.0092637738   0.0056733468   0.035663126   -0.074187419    10.301475      10.301475      10.301475      0              0              0              0.20124468   
     10300   0.97215713     0.20450435    -1.4614752      0.5962821      0.11281442     0.19261971     0.03897298     0.10685058     0.023462813   -0.01751738    -0.028142422    10.246449      10.246449      10.246449      0              0              0              0.20450435   
     10400   1.0236         0.20762393    -1.5376287     -0.067537544   -0.010877951   -0.063519257   -0.049914726    0.080800129   -0.081838849    0.026949717   -0.034249104    10.194872      10.194872      10.194872      0              0              0              0.20762393   
     10500   1.0099913      0.21093841    -1.533403      -0.095792288   -0.013385248    0.023572642   -0.077390469    0.013662082   -0.047164749    0.070424694   -0.028000701    10.141192      10.141192      10.141192      0              0              0              0.21093841   
     10600   1.0513705      0.21429342    -1.6052505     -0.7109394     -0.13147086    -0.17246742    -0.024535758   -0.19740939     0.0059646994   0.010391232   -0.051957598    10.087989      10.087989      10.087989      0              0              0              0.21429342   
     10700   0.96636376     0.21789691    -1.5073382      0.14846617     0.042293095    0.044621031   -0.0018254084   0.084083661   -0.04642091     0.03214822     0.045666064    10.03207       10.03207       10.03207       0              0              0              0.21789691   
     10800   1.0141657      0.22136277    -1.6046183     -0.21775108    -0.025512073   -0.0083838761  -0.09407755     0.025925207    0.008360033   -0.019785065   -0.013166863    9.9794368      9.9794368      9.9794368      0              0              0              0.22136277   
     10900   1.0465638      0.22475106    -1.6859164     -0.051398522    0.014817502   -0.093072146    0.1012429      0.036281754    0.11393473     0.10461734     0.0037535215   9.9290336      9.9290336      9.9290336      0              0              0              0.22475106   
     11000   1.0127506      0.22816828    -1.7010702      0.041080453    0.047836602    0.24794084    -0.026526188   -0.077904842   -0.044001299   -0.009037578   -0.079215786    9.8792158      9.8792158      9.8792158      0              0              0              0.22816828   
     11100   1.0382152      0.23155345    -1.8092139     -0.64232954    -0.080549427   -0.20488286    -0.064945771    0.028180349   -0.06474372    -0.10438979     0.069067946    9.8308366      9.8308366      9.8308366      0              0              0              0.23155345   
     11200   0.97390568     0.23510529    -1.7899017     -0.15868508     0.037972157    0.093189577   -0.011959431    0.032686325   -0.046932146   -0.022340173    0.023611888    9.7810788      9.7810788      9.7810788      0              0              0              0.23510529   
     11300   0.95166467     0.23861959    -1.8197938      0.17482312     0.12457188     0.15318907     0.12354608     0.096980495   -0.049475879   -0.059397578    0.043125988    9.7328238      9.7328238      9.7328238      0              0              0              0.23861959   
     11400   0.918274       0.24198031    -1.8124788     -0.67922223    -0.05219457     0.11499229    -0.074980783   -0.19659522    -0.032638531    0.10097777    -0.088910732    9.6875558      9.6875558      9.6875558      0              0              0              0.24198031   
     11500   0.93713877     0.24561157    -1.8585621     -0.57559581    -0.02583685    -0.033004819    0.050682173   -0.095187904    0.025336127    0.075405631    0.031130178    9.6395765      9.6395765      9.6395765      0              0              0              0.24561157   
     11600   0.9201699      0.24937324    -1.830533      -0.056892481    0.090746223    0.16404799     0.12857483    -0.020384153    0.056804328    0.0024833917  -0.0026666581   9.5908614      9.5908614      9.5908614      0              0              0              0.24937324   
     11700   1.0063525      0.25286731    -1.9185619     -0.3119186      0.024059664    0.018147972    0.13151416    -0.077483142   -0.019557996   -0.1632034     -0.0095971397   9.5464814      9.5464814      9.5464814      0              0              0              0.25286731   
     11800   1.0537646      0.25626626    -1.9482782     -0.28602738     0.02085243     0.0054116066  -0.056732143    0.11387783    -0.019235178   -0.058941509    0.11739539     9.5040873      9.5040873      9.5040873      0              0              0              0.25626626   
     11900   1.0809275      0.25983861    -1.9730843     -0.24972667     0.026001169    0.041591543   -0.027707643    0.064119608    0.052978206   -0.0620372     -0.16937691     9.460331       9.460331       9.460331       0              0              0              0.25983861   
     12000   1.0218167      0.26339051    -1.8888316     -0.041256905    0.077224477    0.078815248    0.21153244    -0.058674259   -0.050048497   -0.081459578   -0.029361191    9.4176133      9.4176133      9.4176133      0              0              0              0.26339051   
     12100   0.98018541     0.266972      -1.848253      -0.19162859     0.047010775   -0.016852287    0.083574265    0.074310346    0.066960305    0.051796455    0.087754138    9.3753104      9.3753104      9.3753104      0              0              0              0.266972     
     12200   0.98588253     0.27061276    -1.8767694     -0.86232074    -0.11242264     0.00029281995 -0.25620714    -0.081353589    0.11146107    -0.1193774      0.10824957     9.333076       9.333076       9.333076       0              0              0              0.27061276   
     12300   0.90212081     0.27451131    -1.7640731     -0.23765676     0.044920289   -0.010245668    0.026346063    0.11866047    -0.025305604   -0.016770917   -0.077918107    9.2886831      9.2886831      9.2886831      0              0              0              0.27451131   
     12400   0.95874976     0.27834488    -1.833474      -0.26675394     0.034359414    0.22595452    -0.0065353442  -0.11634093    -0.065585274   -0.091357762    0.16406768     9.2458423      9.2458423      9.2458423      0              0              0              0.27834488   
     12500   1.0017882      0.28214775    -1.8668407     -0.1119648      0.066614306    0.091737729    0.038605527    0.069499663   -0.013383499    0.063728842   -0.070906202    9.2041149      9.2041149      9.2041149      0              0              0              0.28214775   
     12600   1.0392753      0.28575696    -1.885958      -0.46108222    -0.032795196   -0.040009698    0.0052116635  -0.063587555    0.17480593    -0.080673809   -0.0069580914   9.1652002      9.1652002      9.1652002      0              0              0              0.28575696   
     12700   1.0643619      0.28936219    -1.9035433     -0.012303781    0.079621785    0.166593       0.053354399    0.018917956   -0.1139683      0.14704402     0.043646081    9.1269772      9.1269772      9.1269772      0              0              0              0.28936219   
     12800   1.0418968      0.29300953    -1.8704858     -0.082840396    0.061962036   -0.027859298    0.22800353    -0.014258118    0.025100567    0.04955703    -0.024783128    9.0889486      9.0889486      9.0889486      0              0              0              0.29300953   
     12900   1.0385832      0.2967316     -1.8861943     -0.34081866    -0.0012705112   0.034858365   -0.08913483     0.050464932    0.055500709   -0.029386973   -0.052542801    9.0507859      9.0507859      9.0507859      0              0              0              0.2967316    
     13000   0.98148025     0.30039991    -1.8343538      0.079002324    0.12248037     0.057390063    0.12757971     0.18247135     0.274587      -0.11338417     0.12817358     9.013794       9.013794       9.013794       0              0              0              0.30039991   
     13100   0.97277116     0.3040041     -1.8531893      0.045170845    0.12339779     0.41194211     0.10317909    -0.14492783     0.011188319    0.041314275    0.014476224    8.9780306      8.9780306      8.9780306      0              0              0              0.3040041    
     13200   0.94787205     0.30778911    -1.8516389     -1.4324623     -0.27855541    -0.30524702    -0.26315362    -0.2672656     -0.12970419     0.065821594   -0.16267863     8.9410765      8.9410765      8.9410765      0              0              0              0.30778911   
     13300   0.96706789     0.31193891    -1.8968889     -0.4592555     -0.0016207983   0.047151446    0.06636902    -0.11838286     0.020826834   -0.1197537     -0.067115058    8.9012509      8.9012509      8.9012509      0              0              0              0.31193891   
     13400   0.95376476     0.31612745    -1.8825379     -0.50945287    -0.014486929    0.07325215    -0.080523213   -0.036189723    0.080020319   -0.13194015     0.039172575    8.8617635      8.8617635      8.8617635      0              0              0              0.31612745   
     13500   0.93484737     0.32035586    -1.8301262     -1.217299      -0.22786984    -0.49946442    -0.11863182    -0.065513275   -0.14093967    -0.023752184    0.030238942    8.8226017      8.8226017      8.8226017      0              0              0              0.32035586   
     13600   1.0562811      0.32457485    -1.9588899      0.020286494    0.11881708     0.14765767     0.1791765      0.029617065   -0.037734295    0.083933402   -0.087527893    8.7842079      8.7842079      8.7842079      0              0              0              0.32457485   
     13700   1.0792258      0.32830781    -1.9415802     -0.16814198     0.048557853    0.082531565    0.23245462    -0.16931263    -0.031403425   -0.11165351     0.13823424     8.7507878      8.7507878      8.7507878      0              0              0              0.32830781   
     13800   1.115006       0.33198598    -1.9789188     -0.18297992     0.039775681   -0.00030086756 -0.14128592     0.26091383     0.10872513     0.042073229    0.10730924     8.7183503      8.7183503      8.7183503      0              0              0              0.33198598   
     13900   1.0861638      0.33576738    -1.9813435     -1.0092073     -0.19809158    -0.14265482    -0.19971117    -0.25190874    -0.15380813    -0.086119556    0.069207065    8.6854981      8.6854981      8.6854981      0              0              0              0.33576738   
     14000   1.0163389      0.34013175    -1.9811564     -0.98457705    -0.16088434    -0.24826275    -0.19945713    -0.034933123   -0.10335826    -0.0076575473   0.080250947    8.6481889      8.6481889      8.6481889      0              0              0              0.34013175   
     14100   1.0218097      0.34440836    -2.0698415      0.074217136    0.19381036     0.10444749     0.35607477     0.12090882     0.045119329   -0.071287762   -0.071778169    8.6122441      8.6122441      8.6122441      0              0              0              0.34440836   
     14200   0.97549283     0.34843323    -2.0641861     -0.17329106     0.13778064    -0.093836977    0.28701437     0.22016451    -0.042983979    0.030124206    0.042838897    8.5789546      8.5789546      8.5789546      0              0              0              0.34843323   
     14300   0.96640742     0.35221818    -2.0745309     -0.97206651    -0.108835      -0.082746988   -0.04670497    -0.19705303    -0.061175627   -0.16077638     0.15193418     8.548114       8.548114       8.548114       0              0              0              0.35221818   
     14400   1.0281474      0.35628941    -2.1977063     -0.12263337     0.17508806     0.18308942     0.0083543412   0.33382043     0.037543536   -0.064923854    0.0018988305   8.5154301      8.5154301      8.5154301      0              0              0              0.35628941   
     14500   1.0567275      0.36030612    -2.2758368     -0.5765854      0.039989261   -0.12412566     0.11533601     0.12875743    -0.013101279    0.01706394    -0.20255803     8.4836683      8.4836683      8.4836683      0              0              0              0.36030612   
     14600   0.96289384     0.36420771    -2.1838505     -1.3734132     -0.20749303    -0.23909987    -0.19325068    -0.19012854     0.078368968   -0.037445998    0.23578459     8.4532656      8.4532656      8.4532656      0              0              0              0.36420771   
     14700   1.0175839      0.36847708    -2.3115108      0.063351122    0.28678169     0.40909465     0.29807        0.15318041    -0.026600717   -0.099546096   -0.18505333     8.4204907      8.4204907      8.4204907      0              0              0              0.36847708   
     14800   0.96254673     0.37243148    -2.2746738     -0.24967457     0.1992164      0.13050398     0.24179995     0.22534527    -0.081995707   -0.11095453     0.062465976    8.3905822      8.3905822      8.3905822      0              0              0              0.37243148   
     14900   0.9790102      0.37642079    -2.3370978     -1.0999443     -0.076659527   -0.1313857      0.086852272   -0.18544515    -0.041777546   -0.076541101    0.05085621     8.3608358      8.3608358      8.3608358      0              0              0              0.37642079   
     15000   0.93551699     0.38070317    -2.3002506     -1.6276767     -0.25046299    -0.37774795    -0.34395082    -0.029690182    0.13224354     0.15391363    -0.0062569791   8.3293682      8.3293682      8.3293682      0              0              0              0.38070317   
     15100   0.96742713     0.38534616    -2.3728865     -0.77738912     0.053112054   -0.2626118      0.2931457      0.12880227    -0.014951675    0.12224953     0.14654393     8.2957798      8.2957798      8.2957798      0              0              0              0.38534616   
     15200   0.97273857     0.38986675    -2.4171788     -0.84572916     0.042402368    0.23143685    -0.059696126   -0.044533619   -0.015890014   -0.16303358    -0.097513649    8.2635912      8.2635912      8.2635912      0              0              0              0.38986675   
     15300   0.90351671     0.3940428     -2.373111      -0.8097351      0.076973472    0.013540842   -0.29896745     0.51634702    -0.038021262    0.12114851     0.08862178     8.2342951      8.2342951      8.2342951      0              0              0              0.3940428    
     15400   0.93804997     0.39818834    -2.519241      -1.2093358     -0.032627677   -0.17816154     0.12954488    -0.049266371    0.047265148   -0.05634274    -0.017234149    8.2056196      8.2056196      8.2056196      0              0              0              0.39818834   
     15500   0.85331315     0.40281775    -2.4658433     -2.1890071     -0.36500182    -0.28567599    -0.27184562    -0.53748384     0.022260447    0.010560755    0.071652187    8.1740639      8.1740639      8.1740639      0              0              0              0.40281775   
     15600   0.86829576     0.40794651    -2.5004556     -2.1349748     -0.34506734    -0.20944795    -0.13870244    -0.68705163     0.1281937      0.029427267   -0.14797291     8.1396642      8.1396642      8.1396642      0              0              0              0.40794651   
     15700   0.94908012     0.41307387    -2.5764527     -0.95159022     0.078243849   -0.055302011    0.080864185    0.20916937     0.0062405865   0.19256015    -0.12326082     8.1058455      8.1058455      8.1058455      0              0              0              0.41307387   
     15800   0.93965569     0.41774313    -2.4859715     -0.51156521     0.21721511     0.40199838     0.14338071     0.10626625     0.18517312    -0.0436839      0.089613338    8.0755316      8.0755316      8.0755316      0              0              0              0.41774313   
     15900   0.98708139     0.4219091     -2.4884463     -1.4063214     -0.15000558    -0.042313441   -0.18574126    -0.22196204    -0.10447607    -0.25367121    -0.011031265    8.0488641      8.0488641      8.0488641      0              0              0              0.4219091    
     16000   1.1097692      0.42641459    -2.630928      -1.0454353     -0.027460291   -0.11382739     0.052770813   -0.021324299    0.068730364   -0.00010226235 -0.087816832    8.0204157      8.0204157      8.0204157      0              0              0              0.42641459   
     16100   1.043892       0.43092927    -2.5299564     -0.67177286     0.11759463     0.34367918     0.012169753   -0.0030650568   0.2861849      0.14640053    -0.016005093    7.9923083      7.9923083      7.9923083      0              0              0              0.43092927   
     16200   1.0891076      0.43500921    -2.6115176     -1.3722416     -0.15273453    -0.026189361    0.040808463   -0.4728227     -0.089360957    0.21801284    -0.046742326    7.9672432      7.9672432      7.9672432      0              0              0              0.43500921   
     16300   1.0729052      0.43947554    -2.6319214     -1.5242301     -0.19721253    -0.16407809    -0.015654057   -0.41190546     0.064586027    0.059676835    0.14020779     7.9401613      7.9401613      7.9401613      0              0              0              0.43947554   
     16400   0.95992567     0.44419047    -2.5193735     -0.62436711     0.18668816     0.25784379     0.1033488      0.19887188     0.058160447    0.11886213     0.032646977    7.9119672      7.9119672      7.9119672      0              0              0              0.44419047   
     16500   1.0286513      0.4485022     -2.6716877     -1.4523221     -0.12880022    -0.3307663     -0.16311835     0.10748399     0.20277461     0.16341201    -0.051353496    7.8865313      7.8865313      7.8865313      0              0              0              0.4485022    
     16600   0.99313612     0.45315951    -2.6638812     -1.637951      -0.18798928    -0.3728043     -0.10358641    -0.087577131    0.23020315     0.015748475   -0.015126847    7.8594206      7.8594206      7.8594206      0              0              0              0.45315951   
     16700   0.99057784     0.4581662     -2.6949072     -1.5999734     -0.15973491    -0.050892136   -0.25754118    -0.17077141    -0.15697895     0.045434174    0.070493583    7.8306872      7.8306872      7.8306872      0              0              0              0.4581662    
     16800   0.93531278     0.4634423     -2.6300436     -1.4456978     -0.089153029    0.1342474     -0.20887522    -0.19283127     0.27037752    -0.049361251   -0.11048279     7.8008573      7.8008573      7.8008573      0              0              0              0.4634423    
     16900   0.95958486     0.46857042    -2.6583308     -1.4319968     -0.087685032   -0.13832974    -0.073073548   -0.051651814   -0.13908151    -0.080454294   -0.0083443072   7.7722949      7.7722949      7.7722949      0              0              0              0.46857042   
     17000   1.0139026      0.47356973    -2.7306025     -1.4362611     -0.094243923   -0.045091341   -0.34733741     0.10969698     0.029703195   -0.12013837    -0.023176323    7.7448483      7.7448483      7.7448483      0              0              0              0.47356973   
     17100   1.0111691      0.47844939    -2.7177539     -1.7783623     -0.2478273     -0.16900475    -0.53105506    -0.043422099   -0.07508086    -0.036818929   -0.059321461    7.7184286      7.7184286      7.7184286      0              0              0              0.47844939   
     17200   0.96452077     0.48377296    -2.6421952     -1.2933831     -0.039904728   -0.082284281   -0.044916442    0.0074865381   0.10270099     0.20933243     0.021289804    7.6900122      7.6900122      7.6900122      0              0              0              0.48377296   
     17300   0.9524161      0.48906753    -2.6119923     -1.2381216     -0.021167851   -0.10676453    -0.10832958     0.15159056    -0.20801033    -0.044567916    0.079226137    7.6621612      7.6621612      7.6621612      0              0              0              0.48906753   
     17400   1.0268146      0.49428822    -2.7079095     -1.9038303     -0.32732734    -0.39757587    -0.38597511    -0.19843104     0.084842661   -0.18835206    -0.046238997    7.6350896      7.6350896      7.6350896      0              0              0              0.49428822   
     17500   1.0682645      0.50001652    -2.7743706     -1.6590895     -0.21778163    -0.16072767     0.070375534   -0.56299275     0.07634614     0.11961228     0.26906846     7.6058212      7.6058212      7.6058212      0              0              0              0.50001652   
     17600   1.0288331      0.50535276    -2.7241395     -1.3112776     -0.056356777   -0.1895108     -0.010532594    0.030973064   -0.036730367    0.11509908    -0.059213474    7.5789553      7.5789553      7.5789553      0              0              0              0.50535276   
     17700   1.0274772      0.51018606    -2.7481097     -1.5878845     -0.17313142     0.079317884   -0.67876452     0.080052374   -0.33994419    -0.0705692      0.10014494     7.554946       7.554946       7.554946       0              0              0              0.51018606   
     17800   1.0020934      0.51506916    -2.7662997     -1.4172618     -0.068638315   -0.10492741     0.0042452446  -0.10523277     0.12631771     0.18988433     0.031072243    7.5309953      7.5309953      7.5309953      0              0              0              0.51506916   
     17900   0.9327745      0.52029738    -2.7450115     -1.4162618     -0.029995726   -0.19449596     0.09265161     0.011857175   -0.056357258    0.0045129222  -0.14690425     7.5056852      7.5056852      7.5056852      0              0              0              0.52029738   
     18000   0.90374969     0.52531035    -2.7651755     -1.4570112     -0.019427907   -0.073881875    0.020269435   -0.0046712814  -0.13820827    -0.027085998   -0.062215174    7.4817336      7.4817336      7.4817336      0              0              0              0.52531035   
     18100   0.91071419     0.53045448    -2.8158723     -2.3352932     -0.42371827    -0.54141219    -0.49494607    -0.23479655     0.016536742   -0.15204825     0.27623633     7.4574701      7.4574701      7.4574701      0              0              0              0.53045448   
     18200   0.9207867      0.53626212    -2.8397991     -1.9341097     -0.22844021    -0.10551362    -0.19533919    -0.38446781     0.13577897     0.10747971     0.098756117    7.4304512      7.4304512      7.4304512      0              0              0              0.53626212   
     18300   1.0338265      0.54207437    -2.9771073     -2.2264088     -0.39043523    -0.67160856    -0.29706298    -0.20263415     0.03837715     0.10886652    -0.16850486     7.4037987      7.4037987      7.4037987      0              0              0              0.54207437   
     18400   1.0674564      0.5478271     -2.959158      -1.4342864     -0.034018597   -0.33888194     0.20613982     0.030686332   -0.32092599    -0.024271465    0.073719702    7.3777917      7.3777917      7.3777917      0              0              0              0.5478271    
     18500   1.1182248      0.55263214    -2.9472005     -0.54167223     0.37005139     0.12139811     0.42497738     0.56377868     0.093312729   -0.010493096    0.027598198    7.3563466      7.3563466      7.3563466      0              0              0              0.55263214   
     18600   1.157342       0.55706225    -2.9732701     -1.4729389     -0.11495825    -0.049979863   -0.42548828     0.1305934     -0.43884649     0.0073494392   0.0041595989   7.3367939      7.3367939      7.3367939      0              0              0              0.55706225   
     18700   1.1254459      0.56201809    -2.9862051     -1.5662147     -0.13270661     0.018454909    0.015188706   -0.43176346    -0.38951057     0.11159192     0.12182817     7.315165       7.315165       7.315165       0              0              0              0.56201809   
     18800   1.0348241      0.56680659    -3.0037156     -1.2910832      0.08664797    -0.16719094     0.27498355     0.1521513      0.25548004     0.093288978    0.12687625     7.2945067      7.2945067      7.2945067      0              0              0              0.56680659   
     18900   1.0054836      0.57145748    -3.0543275     -1.4831283      0.036632994   -0.10150698     0.042068501    0.16933746    -0.12623619    -0.17611765    -0.2326735      7.2746637      7.2746637      7.2746637      0              0              0              0.57145748   
     19000   1.0485157      0.57634962    -3.1536428     -2.5716206     -0.51498801    -0.76480836    -0.55339099    -0.22676468    -0.014157798   -0.19399788     0.002756662    7.2540223      7.2540223      7.2540223      0              0              0              0.57634962   
     19100   0.95824291     0.58204218    -3.0419794     -2.0767519     -0.2460187     -0.21260726    -0.23244618    -0.29300265    -0.052698964    0.20362943     0.09510126     7.2302959      7.2302959      7.2302959      0              0              0              0.58204218   
     19200   0.99829997     0.58784       -3.1152041     -1.9180136     -0.15645748    -0.099127026   -0.19323833    -0.17700707    -0.0051605912  -0.050973553   -0.46004294     7.2064467      7.2064467      7.2064467      0              0              0              0.58784      
     19300   1.0040263      0.59355608    -3.137441      -2.0483195     -0.22090417    -0.34910349    -0.23022374    -0.083385288    0.045212785   -0.092297856    0.018294044    7.1832388      7.1832388      7.1832388      0              0              0              0.59355608   
     19400   1.0003707      0.59926906    -3.1499571     -1.5513047      0.057529388    0.53655851    -0.26695568    -0.097014672    0.1834799     -0.27583946    -0.0020742662   7.1603394      7.1603394      7.1603394      0              0              0              0.59926906   
     19500   1.0208497      0.60408873    -3.1962345     -2.1889974     -0.2835818     -0.26317965    -0.1530168     -0.43454894     0.079802871   -0.012420484   -0.058711857    7.1412458      7.1412458      7.1412458      0              0              0              0.60408873   
     19600   1.0573008      0.60905989    -3.2867705     -1.4210714      0.15928448     0.2506401      0.2766713     -0.049457962   -0.10231821    -0.26046418     0.16269036     7.1217637      7.1217637      7.1217637      0              0              0              0.60905989   
     19700   0.98520229     0.61393339    -3.2465021     -1.4804098      0.16502414     0.23003996     0.14942099     0.11561147     0.27704436    -0.15622887    -0.18721193     7.102869       7.102869       7.102869       0              0              0              0.61393339   
     19800   0.93531387     0.61912332    -3.2425312     -2.4604898     -0.34553533    -0.47969818    -0.17539609    -0.38151172    -0.010662785    0.0041664081   0.24671911     7.0829662      7.0829662      7.0829662      0              0              0              0.61912332   
     19900   0.90860243     0.62496432    -3.251457      -2.3681672     -0.26862064    -0.25321209    -0.18440358    -0.36824624    -0.016798106   -0.12468314     0.17230354     7.060831       7.060831       7.060831       0              0              0              0.62496432   
     20000   1.0102953      0.63116308    -3.4222181     -1.8959801      0.010541685    0.063693271    0.062577066   -0.094645283   -0.24363867     0.11540466    -0.090259041    7.0376397      7.0376397      7.0376397      0              0              0              0.63116308   
     20100   0.96487904     0.63694037    -3.3655396     -1.9854266     -0.03472424    -0.078275068    0.23195956    -0.25785721    -0.0055480922  -0.32681502     0.01303894     7.0162971      7.0162971      7.0162971      0              0              0              0.63694037   
     20200   0.92445958     0.64233701    -3.306225      -2.5190429     -0.34602922    -0.29928607    -0.59727345    -0.14152812    -0.17126397    -0.050893047    0.48109276     6.9965925      6.9965925      6.9965925      0              0              0              0.64233701   
     20300   1.0629498      0.64817002    -3.5135025     -1.9041019      0.013522032   -0.049818189    0.087273933    0.0031103522  -0.018148824   -0.0026007501  -0.16129718     6.9755413      6.9755413      6.9755413      0              0              0              0.64817002   
     20400   0.97464567     0.65357827    -3.3951593     -1.2811788      0.39174401     0.16158445     0.35010284     0.66354475    -0.11470357    -0.28795742    -0.25323613     6.9562475      6.9562475      6.9562475      0              0              0              0.65357827   
     20500   1.0460482      0.65778037    -3.514579      -2.0749468     -0.072711479   -0.3666891      0.0093877527   0.13916692    -0.51243837    -0.1633142      0.0833843      6.941403       6.941403       6.941403       0              0              0              0.65778037   
     20600   1.0569261      0.66207079    -3.5670125     -1.8289535      0.096660372    0.012161009   -0.17720701     0.45502712     0.039912568   -0.16683102     0.020117897    6.9263763      6.9263763      6.9263763      0              0              0              0.66207079   
     20700   0.96588127     0.66689975    -3.4922281     -2.3516241     -0.18247211    -0.041346052   -0.10094661    -0.40512368    -0.062805304   -0.0011774426  -0.33073899     6.9096181      6.9096181      6.9096181      0              0              0              0.66689975   
     20800   0.94460534     0.67271492    -3.5165694     -2.8843149     -0.47552935    -0.69998869    -0.32076877    -0.40583058    -0.18370914     0.17163521     0.22690144     6.8896507      6.8896507      6.8896507      0              0              0              0.67271492   
     20900   0.94969431     0.67941978    -3.5651291     -2.4085488     -0.16110799    -0.31949803     0.03168373    -0.19550969     0.18091783     0.21438273    -0.18613739     6.8669123      6.8669123      6.8669123      0              0              0              0.67941978   
     21000   0.90004365     0.68556772    -3.5037272     -2.1399465      0.012754981   -0.04860897     0.14660665    -0.059732734    0.24070777     0.12369527     0.21394609     6.8463239      6.8463239      6.8463239      0              0              0              0.68556772   
     21100   1.0429842      0.69131948    -3.7002452     -2.9947683     -0.53494108    -0.3688996     -0.64213463    -0.59378901     0.28116689    -0.0041788911   0.22442396     6.8272839      6.8272839      6.8272839      0              0              0              0.69131948   
     21200   0.98858395     0.69815552    -3.6037184     -2.1953004     -0.042551708   -0.25838994    -0.28077304     0.41150786    -0.38233769    -0.28457537    -0.075620394    6.8049275      6.8049275      6.8049275      0              0              0              0.69815552   
     21300   1.0937955      0.70471688    -3.7198909     -2.6786998     -0.3788165     -0.3186753     -0.33900755    -0.47876666     0.097734435    0.077027998    0.28206863     6.7837422      6.7837422      6.7837422      0              0              0              0.70471688   
     21400   1.0220111      0.71065324    -3.5769621     -1.1590071      0.576665       0.45956057     0.92104194     0.34939249     0.34490474     0.22419276     0.20041864     6.7648003      6.7648003      6.7648003      0              0              0              0.71065324   
     21500   1.0971249      0.71499814    -3.6788951     -1.7122731      0.21395541     0.74625695     0.33030322    -0.43469393     0.070161019    0.085609111    0.5613975      6.7510697      6.7510697      6.7510697      0              0              0              0.71499814   
     21600   1.1037511      0.718797      -3.7201931     -1.8397846      0.15229347     0.32550717    -0.20240012     0.33377335     0.013114197    0.064942976   -0.39263022     6.7391555      6.7391555      6.7391555      0              0              0              0.718797     
     21700   0.99982828     0.72279035    -3.6772016     -2.2691944     -0.05535028     0.33785039    -0.20877227    -0.29512896    -0.065746163   -0.34640822    -0.15610136     6.7267215      6.7267215      6.7267215      0              0              0              0.72279035   
     21800   1.0059057      0.72769892    -3.8080783     -2.1864522      0.079591554   -0.1533212      0.010866611    0.38122925    -0.14135315     0.22043452     0.036035482    6.7115627      6.7115627      6.7115627      0              0              0              0.72769892   
     21900   0.95043895     0.73260131    -3.7865975     -1.6909731      0.45094561     0.61672751     0.23322125     0.50288809     0.33835613     0.35285221     0.42694356     6.6965584      6.6965584      6.6965584      0              0              0              0.73260131   
     22000   0.994168       0.73660506    -3.876127      -2.2847497      0.072041046   -0.43864658     0.25115044     0.40361927    -0.095997116    0.22039314    -0.030214374    6.6844035      6.6844035      6.6844035      0              0              0              0.73660506   
     22100   0.98878645     0.74153301    -3.8947617     -2.3778474      0.027740423   -0.17277919     0.14362964     0.11237082     0.20792656    -0.035070295    0.019258507    6.6695633      6.6695633      6.6695633      0              0              0              0.74153301   
     22200   0.96749817     0.74685965    -3.885551      -2.1566262      0.19345953    -0.2717496      0.40560037     0.44652781    -0.035161758    0.20221062     0.11023934     6.6536696      6.6536696      6.6536696      0              0              0              0.74685965   
     22300   0.95912284     0.75192725    -3.8870926     -2.5555126     -0.068296113    0.14139374    -0.24788883    -0.098393252    0.5534563     -0.2265182      0.20871452     6.6386884      6.6386884      6.6386884      0              0              0              0.75192725   
     22400   1.0499504      0.75690806    -4.0311552     -2.6491453     -0.12732647    -0.34474346    -0.048331841    0.011095884    0.056950913    0.051839103    0.35637338     6.6240945      6.6240945      6.6240945      0              0              0              0.75690806   
     22500   1.0301455      0.76204454    -4.0321795     -1.8977886      0.41351219    -0.30418224     1.1057879      0.43893087     0.1075103      0.17324627     0.22473527     6.6091779      6.6091779      6.6091779      0              0              0              0.76204454   
     22600   0.9795174      0.7665915     -4.0026678     -2.3316136      0.14573914     0.030757671    0.045999627    0.36046011    -0.32336848    -0.13263712     0.42034848     6.5960848      6.5960848      6.5960848      0              0              0              0.7665915    
     22700   0.98234563     0.77122684    -4.0738585     -2.3834422      0.15723595     0.16709358    -0.22096011     0.52557438     0.71410225     0.0875347      0.33645799     6.5828433      6.5828433      6.5828433      0              0              0              0.77122684   
     22800   1.0071945      0.77614367    -4.183581      -2.5672377      0.079805582   -0.38716183     0.28352156     0.34305702     0.02544324    -0.053011455    0.30320563     6.5689132      6.5689132      6.5689132      0              0              0              0.77614367   
     22900   0.95539273     0.78116001    -4.1694744     -2.948621      -0.14562975     0.63207279    -0.61363117    -0.45533087     0.10129505    -0.16588416     0.31990927     6.5548219      6.5548219      6.5548219      0              0              0              0.78116001   
     23000   0.92448121     0.78677791    -4.1669809     -3.1764553     -0.27842112     0.10095433    -0.54516786    -0.39104983    -0.1422977     -0.37715708    -0.13399825     6.5391833      6.5391833      6.5391833      0              0              0              0.78677791   
     23100   0.86851084     0.79278897    -4.093028      -2.12393        0.48493146     0.22799555     0.078662418    1.1481364     -0.20504932     0.066636271    0.13741994     6.5226142      6.5226142      6.5226142      0              0              0              0.79278897   
     23200   0.91967369     0.79755258    -4.1402836     -2.0414875      0.52651742     0.50605443     0.49827907     0.57521877     0.41389345    -0.0040099051  -0.14728288     6.5096022      6.5096022      6.5096022      0              0              0              0.79755258   
     23300   1.0181434      0.80169588    -4.2246453     -2.1270452      0.42127009     0.77197118     0.57053046    -0.078691364   -0.0027635417   0.1715034     -0.18211741     6.4983686      6.4983686      6.4983686      0              0              0              0.80169588   
     23400   1.0142029      0.80466184    -4.1290078     -0.98918297     1.1895294      0.72409865     1.3550258      1.4894639     -0.11828997    -0.043496994    0.36054733     6.4903745      6.4903745      6.4903745      0              0              0              0.80466184   
     23500   1.1823865      0.80547291    -4.2662054     -1.490503       0.74029593     0.64666859     0.77303419     0.80118502    -0.10580855    -0.32084987    -0.10153897     6.4881953      6.4881953      6.4881953      0              0              0              0.80547291   
     23600   1.1304002      0.80588064    -4.1403435     -1.0343989      1.0394558      0.85749758     1.2304918      1.0303781     -0.035812413    0.51524554     0.43244578     6.4871009      6.4871009      6.4871009      0              0              0              0.80588064   
     23700   1.0775704      0.80640325    -4.0942833     -0.88257145     1.1754706      1.4136402      0.80055168     1.3122198      0.19392564     0.2243099      0.20587375     6.4856992      6.4856992      6.4856992      0              0              0              0.80640325   
     23800   1.0166918      0.80676574    -4.0836444     -0.81769494     1.2824179      1.3356865      0.93640391     1.5751635      0.56918517     0.13307699     0.1343567      6.4847277      6.4847277      6.4847277      0              0              0              0.80676574   
     23900   1.019843       0.80675932    -4.1466861     -2.0178063      0.44501145     0.28494572     0.47712345     0.57296518     0.13894397     0.055955679   -0.20133342     6.4847449      6.4847449      6.4847449      0              0              0              0.80675932   
     24000   1.0529943      0.80788344    -4.2291417     -1.2832523      1.0093369      1.5342197      0.4524988      1.0412921     -0.085217825    0.18332702    -0.099261295    6.4817358      6.4817358      6.4817358      0              0              0              0.80788344   
     24100   1.0041317      0.80907061    -4.1916763     -1.6281841      0.78319918     0.54417447     0.41007547     1.3953476     -0.13824301     0.18463313    -0.17464012     6.478564       6.478564       6.478564       0              0              0              0.80907061   
     24200   1.1063452      0.81087968    -4.3956666     -2.5368393      0.1530404      0.26773472    -0.16386113     0.35524759     0.11388835    -0.58221497    -0.25396317     6.4737425      6.4737425      6.4737425      0              0              0              0.81087968   
     24300   1.0370126      0.81390507    -4.3592283     -2.7222196      0.06605019    -0.1680663      0.034839676    0.33137719     0.56610731    -0.13446059     0.29228653     6.4657113      6.4657113      6.4657113      0              0              0              0.81390507   
     24400   0.99955042     0.81780476    -4.3740279     -1.9444181      0.69720148     1.0959603      0.81067891     0.18496526     0.0098402456  -0.33309907     0.13167895     6.4554177      6.4554177      6.4554177      0              0              0              0.81780476   
     24500   0.93790477     0.82067265    -4.3245308     -2.1098354      0.60794875     0.62574557     0.8421413      0.35595938     0.089201055   -0.60769941    -0.043642447    6.4478893      6.4478893      6.4478893      0              0              0              0.82067265   
     24600   0.95326796     0.82316601    -4.3722949     -1.5835255      1.0222352      0.53080239     0.97635366     1.5595497      0.23929554     0.22098205     0.1607571      6.4413725      6.4413725      6.4413725      0              0              0              0.82316601   
     24700   0.97720484     0.82448217    -4.4055507     -2.4151915      0.39866036     0.82836347    -0.47160376     0.83922136    -0.2465323     -0.029499054    0.10674926     6.4379431      6.4379431      6.4379431      0              0              0              0.82448217   
     24800   0.93806957     0.82681227    -4.3298522     -1.6035533      0.99685753     1.1108053      1.1672347      0.71253261     0.40179201    -0.41389099    -0.13643812     6.4318897      6.4318897      6.4318897      0              0              0              0.82681227   
     24900   1.0351238      0.82822613    -4.4248876     -2.325193       0.41770635     0.031559245    0.65001805     0.57154175     0.082863393   -0.0089970162   0.071868403    6.4282277      6.4282277      6.4282277      0              0              0              0.82822613   
     25000   1.1165343      0.82967227    -4.4852791     -2.1846801      0.4783223      0.94750493     0.26631219     0.22114976     0.32199851     0.21574137    -0.28794076     6.4244907      6.4244907      6.4244907      0              0              0              0.82967227   
     25100   0.99867168     0.83096371    -4.2518055     -0.67489353     1.5761073      1.9078403      1.5199715      1.3005103     -0.042059091   -0.22732067     0.090338226    6.4211607      6.4211607      6.4211607      0              0              0              0.83096371   
     25200   1.1031873      0.8307467     -4.3491931     -1.4390843      0.95430269     1.4602004      1.2691254      0.13358225    -0.11313845    -0.036931796   -0.13356688     6.4217198      6.4217198      6.4217198      0              0              0              0.8307467    
     25300   1.1094126      0.83041745    -4.3214075     -0.6928337      1.4892975      1.7704175      1.8063765      0.89109851    -0.24808703     0.050776843   -0.49958027     6.4225684      6.4225684      6.4225684      0              0              0              0.83041745   
     25400   1.1250631      0.82844886    -4.3268118     -1.4302505      0.91687048     1.0290474      1.4411938      0.28037015     0.42337468     0.17573852     0.27858162     6.4276515      6.4276515      6.4276515      0              0              0              0.82844886   
     25500   1.0810139      0.82729295    -4.2963512     -1.7436266      0.7064416      0.85412297     1.418766      -0.15356414    -0.15910038    -0.37618672    -0.43356678     6.4306438      6.4306438      6.4306438      0              0              0              0.82729295   
     25600   1.0024438      0.82747168    -4.2931016     -1.6827435      0.83816174     1.1047241      0.80211091     0.6076502      0.13646531    -0.024534681    0.12308957     6.4301808      6.4301808      6.4301808      0              0              0              0.82747168   
     25700   1.009568       0.82862401    -4.4159344     -1.9811695      0.69904575     0.28718455     0.40445348     1.4054992      0.08000199     0.33257649     0.17430662     6.4271986      6.4271986      6.4271986      0              0              0              0.82862401   
     25800   0.91041843     0.83017211    -4.3153233     -2.0587866      0.67752393     0.89298137     0.26648986     0.87310057     0.32674651    -0.1846431     -0.22912113     6.423201       6.423201       6.423201       0              0              0              0.83017211   
     25900   0.96833726     0.83152926    -4.4178905     -1.8972905      0.81290046     0.7125017      0.77131891     0.95488078     0.074936092   -0.4810088      0.20950326     6.4197047      6.4197047      6.4197047      0              0              0              0.83152926   
     26000   1.0021696      0.83289404    -4.4744417     -2.2999995      0.51389875     0.21327549     0.68142679     0.64699396     0.25270891     0.12224614     0.12802206     6.4161963      6.4161963      6.4161963      0              0              0              0.83289404   
     26100   0.96415031     0.83429086    -4.4061055     -1.9138704      0.79882647     0.870805       1.1560073      0.36966711    -0.26875007    -0.56236936    -0.17240798     6.4126135      6.4126135      6.4126135      0              0              0              0.83429086   
     26200   1.014108       0.83580355    -4.4597423     -2.4200823      0.39974501    -0.029286318    0.47479985     0.7537215     -0.12439473    -0.1296925      0.2890028      6.4087425      6.4087425      6.4087425      0              0              0              0.83580355   
     26300   0.94762322     0.83763984    -4.3385058     -2.2005485      0.55103725     0.83153402     0.36536129     0.45621644     0.14931048    -0.3011875      0.0063051541   6.404056       6.404056       6.404056       0              0              0              0.83763984   
     26400   0.99181779     0.83938534    -4.3640033     -1.8493755      0.78928144     0.57207123     1.1864401      0.60933303    -0.44021255    -0.13989392    -0.23286729     6.3996138      6.3996138      6.3996138      0              0              0              0.83938534   
     26500   0.93606374     0.8404583     -4.2277995     -0.12934757     2.0639951      1.6323124      2.6108445      1.9488283      0.10951111    -0.18172972     0.12690526     6.3968893      6.3968893      6.3968893      0              0              0              0.8404583    
     26600   1.0616262      0.83929467    -4.3342123     -1.1847113      1.1941057      1.1815701      1.4576226      0.94312427    -0.65147753    -0.084712325    0.19861435     6.3998442      6.3998442      6.3998442      0              0              0              0.83929467   
     26700   1.1426035      0.83796692    -4.3909329     -1.1241047      1.1895264      1.4118216      1.0162462      1.1405113     -0.090363026   -0.1284671     -0.083662974    6.4032226      6.4032226      6.4032226      0              0              0              0.83796692   
     26800   1.101347       0.835928      -4.3233374     -1.2754957      1.0670099      1.3655367      0.96543647     0.87005651     0.05246003    -0.085498028    0.065078015    6.4084245      6.4084245      6.4084245      0              0              0              0.835928     
     26900   1.1315613      0.83389678    -4.4170394     -1.6486658      0.81836985     0.93368522     0.87794857     0.64347576     0.55917732    -0.19682274    -0.11127131     6.4136235      6.4136235      6.4136235      0              0              0              0.83389678   
     27000   1.031865       0.83316802    -4.3671496     -1.6090847      0.92254898     1.2604777      0.81349101     0.69367825    -0.167022       0.23255364    -0.035537836    6.4154929      6.4154929      6.4154929      0              0              0              0.83316802   
     27100   1.0282789      0.83304347    -4.4564706     -2.5388582      0.2899795      0.55322867    -0.66910929     0.98581911     0.0045311033  -0.10145864     0.11942077     6.4158126      6.4158126      6.4158126      0              0              0              0.83304347   
     27200   0.98545482     0.83384593    -4.4347373     -2.0358281      0.70355212     0.44812936     1.204708       0.45781904    -0.045496021    0.19439903     0.3955873      6.4137539      6.4137539      6.4137539      0              0              0              0.83384593   
     27300   0.9972723      0.83508421    -4.4653668     -2.0182655      0.72779288     0.39069438     1.6127499      0.1799344     -0.11475088    -0.064394787    0.59653074     6.4105822      6.4105822      6.4105822      0              0              0              0.83508421   
     27400   0.97335466     0.83703469    -4.435222      -2.0235519      0.72969504     0.97732093     0.15107701     1.0606872     -0.41748646     0.068562512    0.23821924     6.4055989      6.4055989      6.4055989      0              0              0              0.83703469   
     27500   1.0070953      0.83877391    -4.4723775     -2.3037268      0.50750471     1.5519621      0.22708044    -0.25652839     0.38548587    -0.08143175    -0.057236661    6.4011684      6.4011684      6.4011684      0              0              0              0.83877391   
     27600   1.0148925      0.84130673    -4.4721638     -2.105122       0.65187108     0.80575735     0.76742083     0.38243505     0.20855813     0.047361613    0.071589751    6.3947382      6.3947382      6.3947382      0              0              0              0.84130673   
[...]
    136000   0.10893581     0.26847343    -4.6157239     -5.1378017     -0.16710385    -0.070015517   -0.1936935     -0.23760255     0.0074443191   0.066339661    0.061408576    23.170431      5.9469409      5.9469409      0              0              0              0.26847343   
    137000   0.10678633     0.26580208    -4.6185265     -4.8909554     -0.10434121    -0.039836394   -0.081897465   -0.19128976    -0.0060004383  -0.036405104    0.043218255    23.403298      5.9469409      5.9469409      0              0              0              0.26580208   
    138000   0.10050821     0.2631573     -4.6288302     -4.8983376     -0.10036242     0.084975716   -0.11728187    -0.26878111    -0.0044378248  -0.015165229    0.04905294     23.638505      5.9469409      5.9469409      0              0              0              0.2631573    
    139000   0.096037631    0.26053884    -4.609297      -4.8024645     -0.079702086    0.032953865   -0.05756254    -0.21449758    -0.0043950306   0.0054038623   0.056494163    23.876076      5.9469409      5.9469409      0              0              0              0.26053884   
    140000   0.10915252     0.25794644    -4.6069026     -4.659797      -0.050605463    0.053299102   -0.030907589   -0.1742079      0.020689297    0.007364811    0.049869496    24.116035      5.9469409      5.9469409      0              0              0              0.25794644   
    141000   0.10179561     0.25537983    -4.6329897     -4.9547329     -0.10996962     0.0139889     -0.12085275    -0.22304501    -0.030719838   -0.022558193    0.051896063    24.358405      5.9469409      5.9469409      0              0              0              0.25537983   
    142000   0.10826009     0.25283876    -4.6154216     -4.7277811     -0.062965499    0.04245377    -0.037306156   -0.19404411     0.011291947    0.029817412    0.05667507     24.603211      5.9469409      5.9469409      0              0              0              0.25283876   
    143000   0.10906275     0.25032297    -4.6288525     -4.8453136     -0.086301637   -0.018105317   -0.1335976     -0.10720199    -0.077046565    0.027105836    0.065784555    24.850477      5.9469409      5.9469409      0              0              0              0.25032297   
    144000   0.089789969    0.24783221    -4.6101991     -4.6222412     -0.032906184    0.0077738012  -0.027408217   -0.079084136    0.042723456    0.014610013    0.048126215    25.100229      5.9469409      5.9469409      0              0              0              0.24783221   
    145000   0.096821805    0.24536624    -4.6151571     -4.8830926     -0.091999412   -0.00907849    -0.051374316   -0.21554543     0.033258998   -0.012126589    0.027927117    25.35249       5.9469409      5.9469409      0              0              0              0.24536624   
    146000   0.089609568    0.24292481    -4.6208793     -5.1033804     -0.13609165    -0.080413324   -0.097029144   -0.23083248     0.021422186   -0.00052343677  0.060263741    25.607287      5.9469409      5.9469409      0              0              0              0.24292481   
    147000   0.098839688    0.24050767    -4.6060129     -4.8703366     -0.090046497    0.0059302326  -0.048480269   -0.22758945     0.023366032    0.021242098    0.017066533    25.864644      5.9469409      5.9469409      0              0              0              0.24050767   
    148000   0.1020442      0.23811457    -4.6191468     -4.9385012     -0.10209819    -0.046372002   -0.087958894   -0.17196366     0.044258786    0.022072415    0.041303614    26.124588      5.9469409      5.9469409      0              0              0              0.23811457   
    149000   0.093488887    0.23574529    -4.6216844     -5.0264853     -0.11665816    -0.012569027   -0.13565887    -0.20174657    -0.0064536969  -0.0087572612   0.0065237289   26.387145      5.9469409      5.9469409      0              0              0              0.23574529   
    150000   0.10814054     0.23339959    -4.6205509     -5.0161945     -0.11819427     0.013903021   -0.1645445     -0.20394133    -0.030536389    0.024169719    0.087673191    26.65234       5.9469409      5.9469409      0              0              0              0.23339959   
    151000   0.10650045     0.23107723    -4.6144835     -4.6863765     -0.048493638    0.048028291   -0.092271454   -0.10123775    -0.014802644   -0.0063874547   0.060837293    26.920201      5.9469409      5.9469409      0              0              0              0.23107723   
    152000   0.10315483     0.22877797    -4.6307587     -5.0223744     -0.11346852    -0.045655037   -0.10677939    -0.18797113    -0.024637473   -0.014228292    0.063459178    27.190753      5.9469409      5.9469409      0              0              0              0.22877797   
    153000   0.11374986     0.22650159    -4.6007111     -4.8808916     -0.09264989     0.012523402   -0.11839314    -0.17207993     0.0038036829   0.00096699312  0.049648854    27.464025      5.9469409      5.9469409      0              0              0              0.22650159   
    154000   0.10039488     0.22424786    -4.6139587     -4.6471763     -0.037318302    0.038529172   -0.050769244   -0.099714835    0.0010360269   0.026409328    0.047510253    27.740043      5.9469409      5.9469409      0              0              0              0.22424786   
    155000   0.10116517     0.22201656    -4.6350923     -4.9912833     -0.10236579    -0.049378044   -0.12887309    -0.12884624    -0.033530878    0.018209765    0.069817605    28.018835      5.9469409      5.9469409      0              0              0              0.22201656   
    156000   0.1120047      0.21980746    -4.6320147     -4.7790557     -0.062786622    0.0036262163  -0.061529634   -0.13045645     0.012059041    0.041378163    0.055699942    28.300429      5.9469409      5.9469409      0              0              0              0.21980746   
    157000   0.093539395    0.21762034    -4.6657601     -5.1157426     -0.11664253     0.0030337063  -0.13675882    -0.21620247    -0.02561226    -0.065553566    0.095353513    28.584853      5.9469409      5.9469409      0              0              0              0.21762034   
    158000   0.096799769    0.21545498    -4.6457352     -4.8607726     -0.070416772   -0.035908544   -0.056511263   -0.11883051    -0.014735517    0.050794826    0.043105185    28.872135      5.9469409      5.9469409      0              0              0              0.21545498   
    159000   0.10073902     0.21331116    -4.6567486     -5.1360553     -0.12210313    -0.031106371   -0.10801474    -0.2271883     -0.0053959126   0.02091587     0.079734614    29.162305      5.9469409      5.9469409      0              0              0              0.21331116   
    160000   0.094220941    0.21118868    -4.6579862     -4.7733548     -0.049148092    0.037983033   -0.065096974   -0.12033033    -0.018323999    0.0079853789   0.084807395    29.455391      5.9469409      5.9469409      0              0              0              0.21118868   
    161000   0.09342099     0.20908732    -4.6712305     -5.0757003     -0.10338431    -0.043818476   -0.11834179    -0.14799265     0.036451527    0.01548639     0.044467331    29.751423      5.9469409      5.9469409      0              0              0              0.20908732   
    162000   0.10316918     0.20700687    -4.6536155     -4.9368257     -0.08227397    -0.0094138708  -0.07133183    -0.16607621     0.01762701    -0.012184483    0.046683709    30.05043       5.9469409      5.9469409      0              0              0              0.20700687   
    163000   0.10579379     0.20494711    -4.6729771     -4.5886018     -0.01369827     0.11993987    -0.028929533   -0.13210514     0.010258405    0.020366451    0.079372906    30.352441      5.9469409      5.9469409      0              0              0              0.20494711   
    164000   0.091577832    0.20290786    -4.6655467     -4.8994754     -0.068363084    0.0065511945  -0.096441708   -0.11519874    -0.0046686828  -0.008575876    0.071377694    30.657488      5.9469409      5.9469409      0              0              0              0.20290786   
    165000   0.10462947     0.20088889    -4.6623567     -5.0634851     -0.10177542    -0.062100442   -0.091923543   -0.15130227    -0.016342283   -0.035511574    0.058910249    30.965601      5.9469409      5.9469409      0              0              0              0.20088889   
    166000   0.086267911    0.19889001    -4.6705994     -4.8634434     -0.058147993    0.016767287   -0.081621198   -0.10959007    -0.014138058   -0.023816121    0.043948764    31.276811      5.9469409      5.9469409      0              0              0              0.19889001   
    167000   0.10244297     0.19691102    -4.6574906     -5.1700749     -0.11912767    -0.07886588    -0.14060806    -0.13790906     0.030245977    0.035804822    0.055788812    31.591148      5.9469409      5.9469409      0              0              0              0.19691102   
    168000   0.10832496     0.19495172    -4.6708771     -4.8830523     -0.066257039   -0.0056522171  -0.070056184   -0.12306272    -0.03247344    -0.018437587    0.07631024     31.908644      5.9469409      5.9469409      0              0              0              0.19495172   
    169000   0.093247843    0.19301192    -4.6693791     -5.1896663     -0.11571232    -0.080307963   -0.095498604   -0.1713304      0.032316524    0.035009927    0.053751523    32.229331      5.9469409      5.9469409      0              0              0              0.19301192   
    170000   0.10272842     0.19109142    -4.6571614     -4.57309       -0.012030196    0.052319414   -0.026146018   -0.062263984    0.0051780867  -0.028024418    0.065183882    32.553242      5.9469409      5.9469409      0              0              0              0.19109142   
    171000   0.096022513    0.18919003    -4.6613316     -4.962466      -0.076441032   -0.0076107962  -0.10891497    -0.11279733     0.025158631    0.012759464    0.059251969    32.880407      5.9469409      5.9469409      0              0              0              0.18919003   
    172000   0.10638684     0.18730756    -4.6786313     -4.8285549     -0.05256633     0.020143961   -0.080197618   -0.097645333    0.0050506463   0.012176873    0.02695792     33.210861      5.9469409      5.9469409      0              0              0              0.18730756   
    173000   0.10769237     0.18544382    -4.6608072     -5.0321976     -0.089707822   -0.06309405    -0.094496403   -0.11153301     0.011236174   -0.031629507    0.0017160832   33.544635      5.9469409      5.9469409      0              0              0              0.18544382   
    174000   0.099560323    0.18359862    -4.677753      -4.8001565     -0.045231579    0.0038716877  -0.048388353   -0.091178072   -0.028959824   -0.01164848     0.11683787     33.881765      5.9469409      5.9469409      0              0              0              0.18359862   
    175000   0.10523113     0.18177178    -4.6746028     -5.1368856     -0.10234417     0.0077324766  -0.1269107     -0.18785428    -0.0086972661   0.00053518546  0.018725247    34.222282      5.9469409      5.9469409      0              0              0              0.18177178   
    176000   0.094723024    0.17996312    -4.6801239     -4.7136144     -0.028608341    0.074796301   -0.029191988   -0.13142933     0.0045801501   0.011647886    0.024191841    34.566222      5.9469409      5.9469409      0              0              0              0.17996312   
    177000   0.093109842    0.17817246    -4.6468897     -5.0263269     -0.083968402   -0.03233567    -0.080669623   -0.13889991    -0.0055929373  -0.00089225     0.04399601     34.913618      5.9469409      5.9469409      0              0              0              0.17817246   
    178000   0.10933088     0.17639962    -4.6600918     -4.9612812     -0.074467213    0.022818501   -0.14955554    -0.096664598    0.012651922    0.0018269727   0.066705045    35.264506      5.9469409      5.9469409      0              0              0              0.17639962   
    179000   0.090058587    0.17464441    -4.6633236     -5.0796499     -0.087439487   -0.029045714   -0.079811165   -0.15346158    -0.0092134699  -0.0062479471   0.05399521     35.61892       5.9469409      5.9469409      0              0              0              0.17464441   
    180000   0.10148657     0.17290667    -4.672105      -4.4838211      0.005786905    0.064965663   -0.0043905101  -0.043214438    0.021320811    0.0045805815   0.068866888    35.976896      5.9469409      5.9469409      0              0              0              0.17290667   
    181000   0.10953226     0.17118622    -4.6482528     -4.8820055     -0.061818393    0.019036232   -0.0918224     -0.11266901    -0.026941015   -0.051369257    0.043338342    36.33847       5.9469409      5.9469409      0              0              0              0.17118622   
    182000   0.097878062    0.16948289    -4.6692281     -5.1980081     -0.10397975    -0.073652952   -0.11113112    -0.12715517     0.012606152    0.011516057    0.039664279    36.703677      5.9469409      5.9469409      0              0              0              0.16948289   
    183000   0.096184749    0.1677965     -4.6624241     -4.9071299     -0.059226309    0.0012707823  -0.063604403   -0.11534531     0.020108965    0.010433805    0.056004206    37.072556      5.9469409      5.9469409      0              0              0              0.1677965    
    184000   0.11234657     0.1661269     -4.6733299     -4.8004754     -0.044525434    0.0036994722  -0.056117172   -0.081158602   -0.015353162   -0.015208441    0.089027154    37.445141      5.9469409      5.9469409      0              0              0              0.1661269    
    185000   0.10102685     0.16447391    -4.6748592     -4.8743761     -0.052377379    0.0014849958  -0.072205297   -0.086411837   -0.015828269    0.014412754    0.044844596    37.821471      5.9469409      5.9469409      0              0              0              0.16447391   
    186000   0.10290528     0.16283737    -4.6485638     -4.8229202     -0.048546645    0.0040023582  -0.030753983   -0.11888831     0.023169122   -0.0092129703   0.084905746    38.201583      5.9469409      5.9469409      0              0              0              0.16283737   
    187000   0.1055442      0.16121711    -4.6665434     -4.6005863     -0.013420242    0.045501799    0.019508866   -0.10527139     0.0088627804  -0.019983865    0.059386024    38.585515      5.9469409      5.9469409      0              0              0              0.16121711   
    188000   0.099603603    0.15961297    -4.6806951     -4.7814997     -0.036197743    0.019850741   -0.061974677   -0.066469294    0.011059174   -0.016322023    0.067550084    38.973306      5.9469409      5.9469409      0              0              0              0.15961297   
    189000   0.10474561     0.1580248     -4.6640875     -4.944861      -0.062794217    0.022298708   -0.083409224   -0.12727214     0.010288484    0.030646879    0.043724086    39.364994      5.9469409      5.9469409      0              0              0              0.1580248    
    190000   0.091082177    0.15645242    -4.6812363     -4.8268152     -0.040040303    0.037769747   -0.068159809   -0.089730846   -0.0088485052  -0.027077491    0.051561353    39.760619      5.9469409      5.9469409      0              0              0              0.15645242   
    191000   0.10828509     0.1548957     -4.6659912     -4.8082421     -0.042788725    0.052573619   -0.052234131   -0.12870566     0.0094526669   0.010820898   -0.0028843934   40.16022       5.9469409      5.9469409      0              0              0              0.1548957    
    192000   0.094906032    0.15335446    -4.6698199     -4.71099       -0.025487148    0.039720777   -0.066905135   -0.049277084   -0.0039612676  -0.02830234     0.040740414    40.563837      5.9469409      5.9469409      0              0              0              0.15335446   
    193000   0.10447579     0.15182856    -4.6582153     -5.1153277     -0.08461578    -0.050712673   -0.088922148   -0.11421252    -0.020350385    0.031555774    0.04610368     40.97151       5.9469409      5.9469409      0              0              0              0.15182856   
    194000   0.099182854    0.15031784    -4.665405      -4.7791516     -0.035772501    0.018044142   -0.044858811   -0.080502834    0.0091936199   0.0098776594   0.051951249    41.383281      5.9469409      5.9469409      0              0              0              0.15031784   
    195000   0.11154853     0.14882215    -4.6574776     -4.7769249     -0.038684758   -0.0027290251  -0.062395086   -0.050930162   -0.018825262    0.017872917   -0.00023399014  41.79919       5.9469409      5.9469409      0              0              0              0.14882215   
    196000   0.098445813    0.14734134    -4.6651475     -4.7286872     -0.028191759    0.039265248   -0.027100582   -0.096739944   -0.01814481    -0.035006727    0.036314025    42.219279      5.9469409      5.9469409      0              0              0              0.14734134   
    197000   0.09013459     0.14587527    -4.6525919     -4.8856329     -0.048744466    0.0080664468  -0.030041148   -0.1242587     -0.016284763    0.018080304    0.03354864     42.643589      5.9469409      5.9469409      0              0              0              0.14587527   
    198000   0.096203837    0.14442379    -4.6545221     -4.9709783     -0.060400712    0.0030949247  -0.03913025    -0.14516681    -0.011894446   -0.0031122506   0.057857778    43.072165      5.9469409      5.9469409      0              0              0              0.14442379   
    199000   0.098165839    0.14298675    -4.6622772     -4.7600251     -0.031750917    0.042516556   -0.04022742    -0.097541888    0.050135622   -0.045012179    0.038421991    43.505047      5.9469409      5.9469409      0              0              0              0.14298675   
    200000   0.1024456      0.14156401    -4.6694082     -5.0965195     -0.0746443     -0.045890927   -0.043328192   -0.13471378    -0.029218064    0.022669738    0.030222091    43.94228       5.9469409      5.9469409      0              0              0              0.14156401   
Loop time of 25.2843 on 12 procs for 200000 steps with 200 atoms

Performance: 1366856.486 tau/day, 7910.049 timesteps/s
98.3% CPU use with 12 MPI tasks x 1 OpenMP threads

MPI task timing breakdown:
Section |  min time  |  avg time  |  max time  |%varavg| %total
---------------------------------------------------------------
Pair    | 0.26208    | 1.2634     | 2.3835     |  65.5 |  5.00
Bond    | 0.030897   | 0.066039   | 0.11896    |  10.8 |  0.26
Neigh   | 0.030719   | 0.03144    | 0.032522   |   0.3 |  0.12
Comm    | 5.481      | 6.4927     | 7.4936     |  27.7 | 25.68
Output  | 0.024154   | 0.024337   | 0.025749   |   0.3 |  0.10
Modify  | 16.643     | 16.821     | 17.114     |   3.2 | 66.53
Other   |            | 0.5853     |            |       |  2.31

Nlocal:        16.6667 ave          36 max           0 min
Histogram: 4 1 0 0 1 0 2 1 1 2
Nghost:        377.667 ave         532 max         220 min
Histogram: 1 2 2 1 0 0 2 0 1 3
Neighs:        923.167 ave        2118 max           0 min
Histogram: 5 1 0 0 0 1 0 2 1 2

Total # of neighbors = 11078
Ave neighs/atom = 55.39
Ave special neighs/atom = 9.92
Neighbor list builds = 372
Dangerous builds = 0
System init for write_data ...
Generated 0 of 1 mixed pair_coeff terms from geometric mixing rule
WARNING: Not all mixed pair coeffs generated from mixing. Use write_data with 'pair ij' option to store all pair coeffs. (src/write_data.cpp:309)
Total wall time: 0:00:25
