LAMMPS data file via write_data, version 23 Jun 2022, timestep = 200000

200 atoms
2 atom types
222 bonds
2 bond types

78.02886001074187 121.97113998925813 xlo xhi
97.02652954652248 102.97347045347752 ylo yhi
97.02652954652248 102.97347045347752 zlo zhi

Masses

1 1
2 1.5

Pair Coeffs # lj/cut

1 1 1
2 1 1

Bond Coeffs # harmonic

1 100 1.2
2 100 1.2

Atoms # full

80 40 1 0 79.52072638680852 97.3310638614749 98.41700273077446 0 0 0
9 5 1 0 79.59051018955307 99.86257376177763 98.6524503127184 0 -2 0
35 18 1 0 78.50610053244006 99.7786444698109 98.81809221296535 1 0 0
189 109 2 0 79.92790120911422 98.74434032136875 98.36333596589316 3 -2 0
180 100 2 0 80.48022978877692 97.80227091692076 98.16931870183453 2 -2 -2
154 77 1 0 80.65375712296313 97.17954988006085 97.3680475285596 0 1 -1
12 6 1 0 80.71930669101027 99.9073289736849 98.75628131121407 0 -1 1
8 4 1 0 80.97203122702044 98.74152214549188 97.77128550755846 0 -1 0
73 37 1 0 80.94569945235376 99.79553033673548 97.71160992594196 1 1 0
68 34 1 0 81.29909746648099 97.13348019662888 98.27376608041686 1 2 0
67 34 1 0 81.46347407165321 97.89706759919504 97.40194383484406 1 2 0
74 37 1 0 81.59207525082566 99.20232099489782 98.54149534663891 1 1 0
7 4 1 0 80.81658176132692 98.5705964911667 98.96554581894523 0 -1 0
132 66 1 0 81.69774380100584 98.0997282133235 98.53164200125507 1 1 0
195 115 2 0 82.04809824258993 99.64739531662042 97.22135596815792 -1 0 1
58 29 1 0 82.14680189914411 98.65381715979119 97.6658300560198 -1 1 2
51 26 1 0 82.64800501018368 99.39960598824398 98.23243578100583 -2 1 0
178 98 2 0 82.65977502079555 97.61898639751034 98.95245711395997 -2 1 2
2 1 1 0 83.11424019615073 99.11307141286314 97.23919049840185 -2 0 0
131 66 1 0 82.51637635545234 97.59481733871567 97.75876544465217 1 1 0
57 29 1 0 83.19593037569287 98.37275647062084 98.17020967355583 -1 1 2
138 69 1 0 83.75331866235295 97.73251417197757 98.90713582873829 0 0 1
1 1 1 0 83.69563478506304 99.63811951512865 98.19126054037476 -2 0 0
193 113 2 0 83.65110252391645 98.94522752394703 98.99852171176384 0 0 -1
112 56 1 0 79.66612802967688 97.79723178889999 100.52941054952896 2 -1 -1
143 72 1 0 79.72974883419614 97.97835134507774 99.27655515437235 2 -1 -2
144 72 1 0 79.57336423749415 98.7638488632405 100.20195548971782 2 -1 -2
161 81 2 0 79.47695681484703 99.63755277913013 100.79265619178305 1 0 0
120 60 1 0 79.10187301829802 98.95590403918291 99.23080458078597 0 2 1
165 85 2 0 79.33420153189188 99.94030603883799 99.72823840753806 0 0 -1
100 50 1 0 78.79408461401711 98.09153972905264 99.94748627860386 4 -2 0
50 25 1 0 78.55874148412144 99.14794167630541 100.20324153664721 2 -3 0
172 92 2 0 83.96936217221662 99.80323200123027 100.44684821790787 0 0 -1
10 5 1 0 80.18430493286031 99.2316519996571 99.44334588039274 -1 -1 0
152 76 1 0 80.44259319058061 97.15832546487415 100.34239756590561 -1 1 -1
198 118 2 0 80.52887914246166 98.28030111614979 99.98594293574291 1 1 -2
89 45 1 0 80.47606420422156 99.31799584014146 100.60392822992368 -1 2 0
5 3 1 0 80.73879725432272 97.51494611502598 99.29030129632265 2 -1 0
187 107 2 0 81.23240206238016 99.28845558029744 99.69651169510537 1 0 -1
104 52 1 0 81.3429488825582 98.68359078779791 100.58235246656251 1 -1 -1
183 103 2 0 81.38478737961391 97.53466198794848 100.32612587756388 1 0 0
6 3 1 0 81.70279267653667 98.24861538402911 99.63788100250193 2 -1 0
39 20 1 0 81.73639405670984 97.11532793703803 99.22866795824196 0 -1 0
176 96 2 0 82.13522069492586 99.54563910914715 100.24546166648268 1 -1 1
76 38 1 0 82.3250580770451 99.72076265131683 99.21095516972788 -1 0 -1
82 41 1 0 82.42622533667672 98.40811350709595 100.53827163339795 0 0 0
30 15 1 0 82.50536809057382 97.4573030735207 100.11735922785559 1 -1 1
61 31 1 0 83.09976362522356 99.23190827748662 99.87092321086385 1 0 -1
139 70 1 0 83.19329609104143 98.19281555261325 99.80118738459193 1 3 0
140 70 1 0 83.23387194510813 97.6839790498067 100.9032946566511 1 3 0
62 31 1 0 82.49496914544731 98.66903617322356 99.01481350999593 1 0 -1
164 84 2 0 83.71767063215015 97.3082963295543 99.89876136242718 1 0 0
98 49 1 0 84.31200694648783 98.25053799905022 99.73074333516674 0 1 -1
97 49 1 0 83.72633496353416 98.63040477717323 100.66671091084768 0 1 -1
18 9 1 0 84.83241257177257 97.30852417296825 99.90011191877697 -1 -1 -1
179 99 2 0 78.84382754438083 97.04268760766772 99.37582684478457 1 1 1
109 55 1 0 84.31174995094726 97.73336396006029 100.78623052116434 0 -1 0
99 50 1 0 78.6448167921304 97.44442773095356 100.9482905642773 4 -2 0
85 43 1 0 78.43971912096156 99.9992844488931 100.86943322191887 2 3 -2
81 41 1 0 82.96293311077959 99.32424984798165 100.94601817336454 0 0 0
88 44 1 0 79.61916798386038 97.70447467890565 101.57139874997759 1 -1 -1
86 43 1 0 78.89001205972207 99.3997418037553 101.81104233616982 4 1 -2
87 44 1 0 78.88011315260441 98.57225239707414 101.06882874704748 0 0 -1
157 79 1 0 81.22557938630793 97.08209299320107 101.76572669506571 0 3 1
111 56 1 0 79.94597182667667 98.69954705348121 101.32147825800037 2 -1 -1
78 39 1 0 80.01294874919722 99.66587313534473 101.90968510985171 -1 -1 -1
126 63 1 0 80.15002301343087 97.11478999613661 102.35967014349258 -7 6 0
168 88 2 0 80.6638850981578 97.89211054682995 101.15274476808764 2 1 -1
125 63 1 0 80.94555788682683 98.02773514992307 102.27526695119178 0 -1 0
115 58 1 0 81.02104365573516 98.92775888247 101.63909960013848 1 2 -1
77 39 1 0 80.924896174746 99.41577700827314 102.65599538298159 -1 -1 -1
72 36 1 0 82.83381028155922 99.31556917007457 102.15312145501682 0 -1 -1
200 120 2 0 81.75319198628101 98.72014805225274 102.57443277424527 -1 0 0
103 52 1 0 81.76267752839324 97.92259170155818 101.40144749124227 1 -1 -1
116 58 1 0 81.82731454168312 99.67281214523098 102.1449968958163 1 2 -1
142 71 1 0 81.91533864645329 97.60623167362422 102.40817259391045 1 0 -1
71 36 1 0 82.03605721655418 99.0202376500508 101.33125307642997 0 -1 -1
31 16 1 0 82.77840161002791 97.29231314956071 101.81546915293542 0 0 -2
130 65 1 0 82.77147334306389 98.34613814479178 101.62194712119648 0 -1 0
184 104 2 0 82.83159337796887 98.19002726584424 102.68568487877992 0 0 0
129 65 1 0 83.74317685553747 99.03863322675804 101.64120459899671 0 -1 0
192 112 2 0 83.81937706415266 99.84465651588471 102.51123905629335 -3 0 -1
20 10 1 0 83.7055255757081 97.88348406433148 101.88211587135125 0 0 0
124 62 1 0 79.34710182578884 102.23248666401614 98.57490131456672 1 0 -1
108 54 1 0 79.2668082979174 101.14801494086689 98.43485938344797 0 1 0
107 54 1 0 78.1216532177777 100.77315911470309 98.75901169358492 1 0 0
102 51 1 0 78.41579237876687 101.88647382489896 98.96678230620348 -1 -2 0
79 40 1 0 79.91394495619164 102.3970258664493 97.64250530403051 0 -1 0
13 7 1 0 80.17685084394894 100.54453352700516 98.04020385270087 1 0 1
24 12 1 0 80.24159436223371 101.58444808819654 98.27513836623429 0 0 -2
175 95 2 0 80.39072284766883 101.38312331203048 97.11948938948917 1 0 1
91 46 1 0 80.38218473806303 102.62287785749822 98.60026692785054 1 -2 -2
14 7 1 0 80.95159876159819 101.02909587181789 98.87063283363078 1 0 1
92 46 1 0 80.99565379946965 102.13367597180711 97.71796006875726 -1 0 -2
170 90 2 0 81.22621045636488 101.09815293754384 97.86637946283487 -3 1 -1
196 116 2 0 81.36534143251525 102.01614348001198 98.682592975939 0 0 1
155 78 1 0 82.25191136364359 102.61149692191309 98.39787606672053 0 -2 0
52 26 1 0 83.14296957150067 100.18571437086173 97.47037724363938 -2 1 0
34 17 1 0 82.30818857807726 100.78384485376846 97.47654548890851 0 -1 0
141 71 1 0 81.76159470521465 102.76294371357625 97.33183807222429 1 -1 0
75 38 1 0 81.8653564684143 100.13954033256383 98.16241450806997 -1 0 -1
150 75 1 0 82.03271722995252 101.04603467963307 98.62571481288524 4 -4 0
156 78 1 0 82.83185605238222 102.51917188857364 97.38945284409517 -5 3 0
33 17 1 0 82.88173345342369 100.41767355488477 98.4992013809395 0 -1 0
199 119 2 0 83.18015171300061 101.35833357536106 97.95236429913666 2 2 2
70 35 1 0 82.7661584199799 101.7356005386653 98.87329744734281 1 -1 1
136 68 1 0 82.0974389413596 101.78487595784594 97.8555314356141 -2 -2 0
69 35 1 0 83.29456347434393 102.7090226971032 98.37488329594737 1 -1 1
186 106 2 0 79.72135770219751 100.95215542219997 100.28409080872459 1 -1 2
123 62 1 0 79.88436961700884 102.79458024343788 99.5051531732849 2 -1 -1
16 8 1 0 79.360445773343 102.72702904130831 100.49366742508246 1 -1 1
106 53 1 0 79.06240552846081 101.91686540127436 99.8759260457844 0 0 0
101 51 1 0 78.93497748530629 100.92481855438227 99.42417817007339 -1 -2 0
118 59 1 0 78.59818736420918 101.06417296435207 100.54501047391966 1 -1 0
105 53 1 0 78.44070510506401 102.19275801399823 100.89593385021102 0 0 0
171 91 2 0 78.29140208767863 100.13519607440067 99.81416587879824 1 1 1
23 12 1 0 79.9704761671649 100.73072781462496 99.12858557298533 3 -3 -2
166 86 2 0 85.28146036396207 102.61504117179365 100.69361593598009 2 -2 0
182 102 2 0 79.94041955919607 101.73666444041795 99.28841819778707 -1 0 1
151 76 1 0 80.16194868065541 102.02834753932297 100.3524323252756 0 -1 -1
11 6 1 0 80.475963365491 100.20127303602227 99.88749611660583 0 -1 1
40 20 1 0 80.92966749029483 102.27680310288356 99.61471821806718 -1 -1 0
44 22 1 0 80.94297077090971 101.12822313168596 100.25025461189361 1 -2 0
158 79 1 0 81.13967608993329 102.42066723628825 100.74208688807201 0 2 1
149 75 1 0 81.51573464792385 100.32010218479371 99.43540434237009 1 -1 0
17 9 1 0 84.21869753172258 102.69386976449658 99.03548642131376 -1 -2 -1
188 108 2 0 81.75978428447944 101.52321855541989 99.5660346246779 -2 3 2
96 48 1 0 81.98804720581325 102.47253586968563 100.02603306955709 3 -1 0
65 33 1 0 81.89450278703319 101.69938042068605 100.73312674363744 -2 -3 2
134 67 1 0 82.01346192760413 100.71842443257526 100.30620823820486 1 0 0
83 42 1 0 82.68332790878767 100.7396815441405 99.48047306053752 0 2 1
194 114 2 0 82.75677822524389 101.65185753808984 100.08438481117572 0 1 2
38 19 1 0 82.91073059471651 100.23309317510369 100.38039220350757 0 0 -1
29 15 1 0 82.85106112359507 102.61301823892441 99.41119542783117 1 -2 1
95 48 1 0 83.00773482257449 102.5890631780214 100.54691931854556 3 -1 0
169 89 2 0 83.6829070967119 100.09709803520863 99.33397696004107 -1 0 0
46 23 1 0 83.69275541024759 100.9226398614931 100.12291570251246 1 -1 0
93 47 1 0 84.89699463708288 102.12644465220286 99.66265651798915 1 -3 -3
94 47 1 0 84.26822209437923 102.66146508004184 100.56053803398594 -3 1 -3
3 2 1 0 84.62407453299652 101.58513914281114 100.55187719613171 0 0 -1
167 87 2 0 83.62234165032304 101.71151175315889 100.86751696186553 0 -1 0
4 2 1 0 83.79700010722453 102.02255651374753 99.80904598260412 1 -1 -1
43 22 1 0 81.26791050563884 100.00926694189089 100.59791643963531 0 -1 0
90 45 1 0 80.31694343311986 100.41615604899435 100.9853430761581 0 1 0
84 42 1 0 83.66518600955786 101.1902639250033 99.02857408182896 0 2 1
59 30 1 0 79.79736892448018 100.98520380832181 102.10928086474466 -1 -1 0
174 94 2 0 79.21601228189029 102.61729342028686 101.69291291915538 2 0 -2
60 30 1 0 79.39092988579498 101.67166644164926 101.12964519637097 -1 -1 0
117 59 1 0 79.24728008961017 100.53990363373183 101.331243750166 1 -1 0
137 69 1 0 80.0365925191741 102.03580559295388 102.15279768496055 1 0 1
15 8 1 0 80.23158372404936 102.71886972852975 101.29255301235877 2 -2 1
28 14 1 0 80.31832194196953 100.29061643910343 102.81819594726463 1 -1 0
185 105 2 0 80.47311717153596 101.55025508669294 101.25792880304446 -1 0 0
190 110 2 0 80.92180292580969 101.17914717307117 102.1728602614784 0 1 1
153 77 1 0 80.96581114076666 102.32336451972719 102.58506552563095 0 0 -2
27 14 1 0 80.94401548994061 100.11476521298012 101.82356195133299 2 -2 0
54 27 1 0 81.49083396245089 101.97882951949106 101.71029801375347 -1 1 0
53 27 1 0 81.62223810967474 101.55022244992922 102.85057398773202 0 0 0
133 67 1 0 81.41514344825333 100.87580305035742 101.28084532050778 1 0 0
181 101 2 0 81.38791980343895 100.50338964133228 102.87399582572168 2 0 -2
19 10 1 0 83.62160990150842 102.7282091991064 101.36910015923826 0 -1 0
110 55 1 0 84.66240434958671 102.90847819122229 101.65493234717316 0 -2 0
64 32 1 0 82.13342624669431 101.14436909596688 101.9790465908044 0 0 0
191 111 2 0 82.15620678302535 102.46633904765741 102.34679385507144 -1 2 -3
47 24 1 0 82.15028055016752 100.10611312004622 101.2410387230868 0 0 -1
26 13 1 0 82.67905168435597 100.37007104198489 102.43276140165875 -1 -1 -1
63 32 1 0 82.66714790404758 102.08244569344119 101.46934437799753 -1 1 0
135 68 1 0 82.75354182779623 101.54645835619495 102.79202687584485 -2 -2 -1
25 13 1 0 83.41295652663673 101.22384612456594 101.95525784917028 -1 -1 -1
37 19 1 0 83.2902639670287 100.23247794085414 101.52450971680854 0 0 -1
32 16 1 0 83.38303456461452 102.30064837640448 102.31961968606211 0 -1 -2
48 24 1 0 82.69095721897068 101.08045811494382 101.05240571261476 0 0 -1
66 33 1 0 82.09067298324025 102.8539250319169 101.03277099306828 -1 -4 2
162 82 2 0 84.35545013219189 101.86389289249509 101.68921681268446 -1 2 0
45 23 1 0 84.16338314058311 100.78223364674676 101.25085527410133 1 -1 0
122 61 1 0 121.48502085969182 99.36262304887043 100.38448564232199 0 0 1
119 60 1 0 121.83941939531829 99.07237562811979 99.33568848671385 0 1 1
49 25 1 0 121.85255861446917 98.26397873611874 100.63794852420139 -2 0 0
121 61 1 0 120.44598018025331 99.92704599619124 100.14797706378933 0 0 1
177 97 2 0 121.84788972611028 99.1039773033981 101.45452636353758 -2 -1 0
128 64 1 0 120.84365616365147 99.72638186587567 101.19410847175696 2 0 1
114 57 1 0 121.0393682855652 101.15824981563097 98.91807925324055 0 0 2
21 11 1 0 118.83668685448211 100.65180298451558 100.52188409364625 -1 -2 -1
159 80 1 0 119.18696223889978 101.7082739336616 100.23549704094268 0 1 2
148 74 1 0 119.11741634616055 100.83881504174889 99.45726668776214 -1 -2 -1
146 73 1 0 119.82388205770943 100.86041784618358 100.25360339970108 0 0 2
42 21 1 0 121.45107793284424 101.61226181279186 100.65479455917497 1 -3 2
147 74 1 0 119.98137331110024 101.6725856377309 99.51151653174152 -1 -2 -1
145 73 1 0 120.18279732146559 100.49403587176376 99.16893421159914 0 0 2
163 83 2 0 121.82477142970144 101.13863757669718 99.7076444774882 -1 3 -1
160 80 1 0 120.29219560853001 101.87638692021467 100.64801899939224 0 1 2
41 21 1 0 121.45136832096634 100.39848924183089 100.55742110862718 1 -3 2
36 18 1 0 121.3505269401906 100.12002013477094 99.30337346124767 0 0 0
113 57 1 0 121.05428420918429 102.03683388839144 99.70642896523377 0 0 2
197 117 2 0 120.8255243236813 101.03537098220939 100.00663985924902 0 1 3
22 11 1 0 119.52286417829737 101.27202220857784 101.22817206408216 -1 -2 -1
173 93 2 0 120.63800874050892 100.83562288488606 101.08342877410409 -1 2 -2
56 28 1 0 120.53215711662688 100.17622973703608 102.08450417061842 -2 -1 -1
55 28 1 0 121.70439381453504 100.26540885143802 101.7051096037434 -2 -1 -1
127 64 1 0 119.70823790020668 100.12013083421763 101.12426638152728 2 0 1

Velocities

80 0.5033956351537529 -0.12845596756274483 -0.06099570992945657
9 0.23694745962104607 -0.1859025736939972 -0.10094137303139092
35 -0.217594877782775 -0.25959622851731134 -0.34891803080552836
189 -0.15853838674103873 -0.14113543210798743 0.23394597985539944
180 0.244307365505775 -0.45121467958174755 0.009672465910343347
154 -0.1652150719590333 0.0458311357704659 -0.5428164544292786
12 -0.23183377216336976 0.07079087125820413 -0.4257418115071406
8 0.6131586197643403 -0.12340812417982543 0.55096056104706
73 0.23570540132369874 -0.07552225251741917 -0.08289326934306902
68 -0.44416898083045203 -0.5655299593940524 -0.014821180820785035
67 -0.23375819644486867 -0.2554029412658005 -0.003549109372476374
74 -0.2352225666959411 -0.10234393616967084 -0.2188698176360228
7 -0.18632544032069873 0.26152092438315183 0.046843746890351624
132 -0.19191194413304377 -0.5162403371208241 0.26315293760583275
195 0.27465781222814073 0.3919880772158231 -0.17044076326720384
58 0.10185622233977966 -0.6009526420780071 0.03156247563627425
51 0.7734109843045416 0.3482986565477873 0.08327037837279763
178 -0.10655873724122754 -0.10155390929349914 -0.3869998514418376
2 0.1794050662868748 -0.044404499272369724 0.3400490697828687
131 0.28803870930069964 -0.2575985538529037 -0.13616417020225893
57 0.32730253222134553 -0.2956590828616302 -0.27391654979597035
138 -0.5664524458283847 0.018205061380132427 0.1181111459239443
1 0.1947741566733968 -0.17984996322693197 0.10664921760516714
193 0.12831706189472505 -0.11262928378878026 -0.21027307446821805
112 -0.5464872341472811 -0.7505194628500114 0.6712881470582011
143 -0.18867290034634326 0.3177630207446792 0.11603852375865792
144 -0.14989652211490626 0.08095138797838518 0.28358920079714595
161 0.047416866879623994 0.002211868764327731 -0.2720648090556846
120 -0.08080760372295491 -0.21369664389155238 0.0652363774496383
165 -0.3272305063799288 0.17456658591909657 -0.19399557311444585
100 0.3602577468290594 -0.27693162639565616 -0.2217186751747168
50 -0.2408888522981169 -0.8496809184654491 0.4256475406517942
172 -0.3110690546230635 0.046056106797675064 0.28264317005241113
10 0.5375475099088576 0.36938632225444445 0.16424029039014776
152 0.05389287987502085 -0.24345558640012016 0.04288722541036353
198 0.09418471667061254 0.2272065084182166 0.2733472607386313
89 0.15789677493637344 -0.09043459199688769 -0.16139982913565884
5 0.41892003718733895 0.26448124320441635 0.289850521140351
187 -0.012036699500254539 0.2424011660799086 0.18934162679511757
104 0.19012572340968922 0.6433420713704763 -0.638347865814234
183 0.13610763226733655 -0.3309967315953489 0.10793212907222005
6 -0.11349945507824119 0.025398577429240492 0.6887971592878911
39 0.25785430792277003 0.0366526892677596 0.08974289592630201
176 0.2525768751281177 0.1967795016615168 -0.02482030196431199
76 0.3153394885156104 0.09767758609885564 -0.2606670326450713
82 -0.18161277449331578 0.012283287084432316 -0.269084047777313
30 -0.2427466095617938 0.0028747285191457334 0.28142916720714367
61 -0.24142385936745334 -0.04688944023162952 -0.25504463161125435
139 0.3574200926648897 0.1809507387395833 0.11926045032389959
140 0.29627603192631774 -0.07744735151666705 0.2910083283768149
62 -0.22454612957565942 0.17803199761450603 -0.16763799167758636
164 -0.04280637067007024 0.05460480973433366 0.21538805845033843
98 -0.022988670740925223 0.2868761775958073 -0.1559109891408479
97 -0.4489435418432109 0.13094477314440547 0.19768353255189058
18 0.20137273993902546 0.02398114906672646 0.3215866181867964
179 0.24230677026851954 -0.1528181998536849 -0.06798197613727129
109 0.1506234838472575 0.1234304236692953 0.18076050379048952
99 0.3333056360109642 -0.22259974443776534 -0.003881879274174455
85 -0.2337696251646286 -0.3125459532521415 0.025396974522340854
81 -0.24265671337429986 0.5253336705993197 0.11264146046200481
88 -0.18276578413235195 -0.06981551440661135 0.379902502828181
86 -0.040652083828111446 -0.12455123794966587 -0.18817492341831177
87 0.0914346474936792 -0.36638595715683847 -0.13008936653507996
157 -0.29921237643859366 -0.12414985814031489 -0.23215796936811287
111 0.4960798709008317 -0.30168367893873543 0.0229214352090977
78 0.2364537392964751 0.17593281879412534 0.5262079189002543
126 -0.015430854878347082 -0.035767411892423176 -0.3365111717239543
168 -0.08456046571050989 0.5217953922635447 0.23095709504152626
125 -0.8707368207607968 -0.06200282278766883 -0.12516146250760785
115 0.30954441593117443 0.598002892722197 0.02618658875427648
77 -0.03597230901512141 0.3441204121322507 0.39070090861365353
72 0.041997672540604714 0.28013363103630584 0.0423500493812144
200 0.32772641263765095 -0.10467913101820112 0.11852256057251206
103 0.12519439461478568 -0.14410147150934216 -0.374794765724639
116 0.07023406071263347 0.25196449131583487 -0.17145613756442896
142 0.06555333086266668 -0.07230241493486794 0.6944213441725935
71 0.022152873762140732 0.2632244140674351 -0.08090364854358713
31 0.024369080883707834 0.13969325460261817 0.007211184105428795
130 -0.013517888582061502 0.37714064693604715 0.08743434707652308
184 -0.1918808688270838 -0.26312786947497613 -0.18644140870865133
129 -0.11022421980626332 -0.06572728424450434 -0.0947696852865131
192 -0.05355821239296856 -0.2014664563427965 0.4880898978593579
20 0.4107603775370349 -0.35484744703533866 0.0941314282448981
124 -0.2450003520925613 0.21441542653521836 -0.06565934412149278
108 -0.7160425947281195 0.13849083818637092 0.21796711871392646
107 -0.18108150685308444 -0.2864950810974841 -0.1614790754164421
102 -0.02310669675411225 0.533889164385587 0.36334568328005884
79 -0.3837373338967984 0.3642695868299727 -0.33065788729191775
13 0.13672033239281772 -0.4748344641267152 0.4983028168754951
24 -0.24113353182814395 -0.19212614267079534 -0.07213474816320514
175 0.5733404562076587 0.15470364741827536 -0.4847427854501934
91 -0.5492879933739674 0.18824229610894996 0.007369959279785908
14 -0.2901567134765735 -0.2389562596764093 -0.46363216651165895
92 0.06994493245270746 0.23973655272952765 -0.40094617139982275
170 0.1478615498689455 0.42441737153460724 -0.31661180638008324
196 -0.013104541504561074 0.2991620380256964 -0.2882536830193777
155 -0.023749208852680774 0.09656385464782086 -0.43494572977337564
52 0.6589754220598636 0.8705261180415057 0.01586400525612202
34 0.020879711871281292 0.33100832043418565 0.08353366963595284
141 -0.15811579188496205 0.17744589611148942 -0.6404068358595518
75 -0.5408513024972311 -0.1436328750046763 0.22764916032801938
150 0.18222543619938833 -0.04841469254358383 -0.13538608552358564
156 0.16363186357374235 0.5387279914524465 0.48382474073929105
33 -0.3079422121821598 -0.6373931091341133 -0.35423699273525344
199 0.01891974899636834 -0.1697895513579515 -0.4536897200791129
70 0.9555004152531883 -0.5835850561270464 -0.08297125024999981
136 -0.515342701794613 0.1748825724768778 0.0774911560796369
69 0.11026684323277892 0.15839831266904075 -0.017406778027817725
186 -0.3042330591267227 -0.08518058331576386 0.1699460145965298
123 -0.1646510514778647 0.20959846409402813 -0.09359960407190572
16 -0.03836531952698977 0.336001453921622 0.2686493970784757
106 -0.03792613722175626 -0.26992809754655117 -0.10636064257830308
101 0.2831449481616724 0.16226869856968884 -0.41647015089370104
118 -0.22023779879139035 0.43164041793642527 -0.8764272178595109
105 0.022653170906268554 -0.42180281118520374 0.354117956339428
171 0.03703460278949832 -0.22826658945768083 -0.027473385471616183
23 0.36121018435942454 0.1670496062511953 -0.17563150457116747
166 0.043496235922581034 -0.020873554981837843 0.002078276781124314
182 0.24385344315108912 -0.1394549763019536 -0.06978550533587977
151 0.3737640814615839 -0.09405754241145727 0.5677949741662797
11 -0.4785268769131574 -0.25577434629194945 0.16823298708088807
40 0.30695378580353666 -0.3708775319426177 0.01692360592803739
44 0.3312891812007997 0.7147234801707438 -0.114352019540323
158 -0.1889465963325992 -0.2440379112455151 -0.08307927053354491
149 -0.17482444806913716 -0.35431496447258576 0.5864773522509125
17 0.1941565696990755 -0.36582874997794845 0.22240339928056493
188 -0.12019824799180173 0.16975003962197097 0.1619759981550235
96 0.11831724767393027 -0.16100941604060856 0.6506174718800887
65 -0.037594344474635076 0.11180843664599838 0.011850879229034364
134 -0.009110588470628825 -0.29780950050844823 0.35738512442765846
83 -0.1545976718768949 -0.027583712223299996 0.12170666037797129
194 0.15549641405139422 0.41993159807282415 0.600948017661947
38 -0.20836636498138938 -0.5915027845011127 -0.2679902188611227
29 0.25301797846403185 0.31254558379333175 0.04001281734133602
95 -0.17216369580557908 -0.16815991578347475 0.6165805810515055
169 0.45126870773710787 0.025651025200857384 -0.2275866772814877
46 0.4363766139917504 -0.14453591963552065 -0.14413446580365194
93 0.12761350653755285 -0.04742022322650941 0.29445955611734104
94 -0.4079931289508759 0.05466048452257154 -0.17685582773286407
3 -0.18555573759806726 -0.32169536147150873 -0.6851591356628355
167 -0.18140151358355616 0.1273063739483355 0.18591098219027435
4 -0.2998938044760372 0.19048917096745313 0.2030119935397051
43 -0.17117301605711133 0.3225330145357055 -0.034462414795078646
90 -0.16591171365602958 -0.11799031965346646 -0.5319259877300238
84 -0.28964224965298213 0.44939969832848936 -0.16532726043700946
59 -0.2088662277693925 0.41292626181283254 0.3020614517240347
174 -0.30869740239688054 0.19885045287131206 0.29486580332412826
60 -0.08603468770543875 -0.33284045196567036 0.30067080042189115
117 -0.42896317356219493 -0.24140956368512792 -0.14269658209129937
137 -0.22455105249457968 -0.20130897685927268 -0.2244143676441195
15 -0.02198668185668327 0.26926903333466085 0.26029709094970654
28 0.16032053919472483 -0.31199091694815634 -0.23879245794115886
185 0.19500631274753835 0.1830637675915937 0.24835817128774842
190 -0.20710369988179836 -0.17395761555728798 -0.02965012621997344
153 -0.6840729946445648 0.33013664901611134 0.3775007736504665
27 -0.20366692388489574 -0.35785546194452195 -0.2508729786490927
54 -0.01454409917312603 -0.166223222301351 -0.07979861917187821
53 0.03880443999872991 0.41241257150767835 -0.49984319088286655
133 0.13447242847766447 0.04791049650724382 -0.17252410307880495
181 -0.12663054737575177 0.22783716627064804 0.04882402287930982
19 0.20425004289703536 0.7550273576161991 0.00956252968725621
110 0.0108474572476962 0.40278467502023624 0.07791702125408516
64 0.08531112288946653 0.04636546081166883 0.2718683626333103
191 -0.34807303716994203 0.4545851180927021 -0.3315034778154519
47 0.015885817965190906 0.4053715568391994 -0.08396007430472313
26 0.2785122277225918 -0.4519521715824708 -0.23650162482099707
63 -0.7076572703775634 -0.30288975209591595 0.1883292390783532
135 0.23995863365823022 -0.05217052813096826 -0.16183966052818452
25 0.06625754034091097 -0.04939971599375146 0.2246153791081831
37 0.04251587319564778 -0.0583522923847874 0.05564784099452306
32 -0.6005174169671005 0.3495429033080319 -0.5729107748300742
48 0.544233860932396 0.22697109299376117 -0.17907153883219315
66 0.017600310442581462 0.06566178524315265 0.18081365978907057
162 -0.4328981163404275 0.0673715099620586 -0.34901343894661546
45 0.3219135565696272 0.4019107786525491 -0.09998833470368518
122 0.5644778891852876 0.0743483242889174 -0.40064761437688734
119 -0.1689414665005362 0.3815954482863274 -0.02712761940789549
49 0.18399503970959002 0.1848360361805865 0.03132675949473843
121 -0.13462997134327773 -0.11073662203631025 0.06271022995011491
177 -0.05071470531295011 0.3234996467577095 -0.2809266812918944
128 0.13935090229919014 -0.6209527121947356 -0.08423156989466939
114 -1.0885610337938156 -0.17827424477769793 0.15582364032134524
21 0.6566656653552224 -0.5191254359329665 -0.011881827031912918
159 0.5135145726732974 0.08850897004977669 -0.3045370858483336
148 -0.1574156368849633 -0.5837960013024655 0.39558098758891824
146 0.4870092105485344 -0.5366825278190808 -0.19749602381062425
42 0.4310668452411002 0.06661103369103821 -0.018597753978629852
147 -0.4662728723715608 -0.6511034301778647 -0.38254097381748786
145 -0.1153957095830244 -0.13059262599458957 0.16248840495846972
163 0.22869110220051847 -0.060327133762333965 -0.5553699899488691
160 0.2782952206904909 0.044570044514008096 -0.04401925789498982
41 0.018937430021813112 -0.031276645481718636 -0.011856194575248134
36 0.3864812841698787 0.1994739512202747 -0.406592577163966
113 -1.2415595174186769 -0.32368840800533866 0.14472112217689007
197 -0.39248124326265055 -0.09857112976980432 -0.03793037511978432
22 -0.41524711955104554 -0.21995669710927976 0.5155823624945909
173 0.1307990482119071 -0.20214781409518925 0.2806973696827282
56 0.47838730663390205 -0.3166301015327884 0.19094697583630654
55 0.026587738170954982 0.04552053276770887 0.2539923807390785
127 1.0395610008365466 -0.014234380282587573 0.3777046690670733

Bonds

1 1 9 10
2 1 35 36
3 2 189 120
4 2 189 143
5 2 189 8
6 2 189 9
7 2 180 5
8 2 180 7
9 2 180 67
10 2 180 91
11 1 73 74
12 1 67 68
13 1 7 8
14 2 195 26
15 2 195 51
16 2 195 73
17 2 195 77
18 1 51 52
19 2 178 132
20 2 178 57
21 2 178 69
22 2 178 155
23 1 131 132
24 1 57 58
25 1 1 2
26 2 193 62
27 2 193 98
28 2 193 138
29 2 193 139
30 1 143 144
31 2 161 86
32 2 161 87
33 2 161 111
34 2 161 78
35 2 165 11
36 2 165 23
37 2 165 35
38 2 165 50
39 2 172 46
40 2 172 97
41 2 172 38
42 2 198 10
43 2 198 152
44 2 198 6
45 2 198 89
46 1 89 90
47 1 5 6
48 2 187 12
49 2 187 43
50 2 187 74
51 2 187 76
52 2 183 30
53 2 183 39
54 2 183 96
55 2 183 103
56 1 39 40
57 2 176 47
58 2 176 71
59 2 176 82
60 2 176 104
61 1 61 62
62 1 139 140
63 2 164 4
64 2 164 17
65 2 164 29
66 2 164 95
67 1 97 98
68 2 179 80
69 2 179 100
70 2 179 106
71 2 179 124
72 1 109 110
73 1 99 100
74 1 85 86
75 1 81 82
76 1 87 88
77 1 157 158
78 1 111 112
79 2 168 15
80 2 168 88
81 2 168 112
82 2 168 125
83 1 125 126
84 1 115 116
85 1 77 78
86 2 200 115
87 2 200 142
88 1 103 104
89 1 71 72
90 1 31 32
91 2 184 20
92 2 184 31
93 2 184 58
94 2 184 131
95 1 129 130
96 2 192 2
97 2 192 37
98 2 192 52
99 2 192 129
100 1 107 108
101 1 79 80
102 1 13 14
103 2 175 53
104 2 175 79
105 2 175 153
106 2 175 92
107 1 91 92
108 2 170 13
109 2 170 24
110 2 170 34
111 2 170 75
112 2 196 68
113 2 196 150
114 1 155 156
115 1 141 142
116 1 75 76
117 1 33 34
118 2 199 136
119 2 199 84
120 1 69 70
121 2 186 44
122 2 186 101
123 2 186 117
124 2 186 151
125 1 123 124
126 1 101 102
127 1 105 106
128 2 171 107
129 2 171 118
130 2 171 119
131 2 171 122
132 1 23 24
133 2 166 18
134 2 166 93
135 2 166 110
136 2 182 40
137 2 182 108
138 1 151 152
139 1 11 12
140 1 149 150
141 1 17 18
142 2 188 14
143 2 188 134
144 2 188 149
145 2 188 65
146 1 65 66
147 1 83 84
148 2 194 70
149 1 29 30
150 1 95 96
151 2 169 1
152 2 169 33
153 2 169 61
154 2 169 83
155 1 93 94
156 1 3 4
157 2 167 25
158 2 167 48
159 2 167 63
160 2 167 94
161 1 43 44
162 1 59 60
163 2 174 16
164 2 174 99
165 2 174 105
166 2 174 126
167 1 117 118
168 1 15 16
169 2 185 158
170 2 185 54
171 2 185 90
172 2 185 133
173 2 190 59
174 2 190 64
175 2 190 137
176 2 190 28
177 1 153 154
178 1 27 28
179 1 53 54
180 1 133 134
181 2 181 27
182 2 181 116
183 1 19 20
184 2 191 157
185 2 191 135
186 1 47 48
187 1 63 64