ITEM: TIMESTEP
0
ITEM: NUMBER OF ATOMS
200
ITEM: BOX BOUNDS pp pp pp
9.7026529546522482e+01 1.0297347045347752e+02
9.7026529546522482e+01 1.0297347045347752e+02
9.7026529546522482e+01 1.0297347045347752e+02
ITEM: ATOMS id mol type x y z
1 1 1 99.7591 100.34 97.8808
2 1 1 98.6193 100.579 98.1097
3 2 1 99.6103 97.098 102.347
4 2 1 100.312 97.2905 101.484
5 3 1 102.558 97.646 98.8183
6 3 1 97.3061 98.3821 99.3164
7 4 1 102.007 97.7474 97.8872
8 4 1 101.494 98.8005 97.5607
9 5 1 102.363 99.2761 97.8835
10 5 1 102.612 99.23 98.9997
11 6 1 97.2266 100.611 99.1471
12 6 1 97.5074 99.497 99.5468
13 7 1 98.2043 100.126 98.9729
14 7 1 99.0138 100.22 99.9535
15 8 1 102.184 102.9 101.594
16 8 1 101.929 102.463 100.519
17 9 1 99.9624 102.246 101.227
18 9 1 99.0571 97.1439 101.401
19 10 1 101.249 97.1651 102.165
20 10 1 100.345 97.9091 102.279
21 11 1 98.6622 98.8257 101.625
22 11 1 99.3988 99.5469 100.898
23 12 1 102.603 101.264 98.1332
24 12 1 97.4649 101.568 97.3341
25 13 1 99.17 99.7195 102.002
26 13 1 98.2143 99.3171 102.61
27 14 1 102.204 99.4582 102.748
28 14 1 101.134 98.9015 102.436
29 15 1 98.5442 97.9368 100.54
30 15 1 98.5192 98.3333 99.3558
31 16 1 99.6585 97.1984 97.9847
32 16 1 100.453 97.1673 97.0833
33 17 1 98.7403 101.331 102.643
34 17 1 98.3468 101.93 97.6673
35 18 1 101.6 99.9717 97.517
36 18 1 100.765 100.302 98.2942
37 19 1 99.5093 99.3595 97.6638
38 19 1 100.086 99.6097 102.581
39 20 1 97.7449 102.389 99.7889
40 20 1 97.0981 101.728 98.9948
41 21 1 100.97 99.6556 100.288
42 21 1 100.645 99.5041 101.422
43 22 1 98.0028 100.267 100.007
44 22 1 97.8033 101.342 99.6816
45 23 1 99.6401 101.392 101.937
46 23 1 100.144 100.369 101.791
47 24 1 98.0681 100.531 101.072
48 24 1 99.2081 100.509 101.305
49 25 1 101.756 99.0951 99.5677
50 25 1 102.476 100.006 99.6982
51 26 1 98.3338 99.5772 97.8723
52 26 1 97.7737 100.548 97.391
53 27 1 102.667 102.011 102.128
54 27 1 97.5871 101.52 101.54
55 28 1 100.758 98.3686 101.393
56 28 1 99.8066 98.9361 101.727
57 29 1 99.0551 97.8257 98.5819
58 29 1 98.7524 98.5933 97.7096
59 30 1 101.986 100.295 101.496
60 30 1 102.482 101.36 101.356
61 31 1 99.9766 100.986 98.6536
62 31 1 101.039 101.118 99.1841
63 32 1 97.3417 101.06 102.402
64 32 1 102.265 100.497 102.467
65 33 1 98.7076 101.935 99.7189
66 33 1 98.9975 102.134 100.898
67 34 1 102.913 98.5219 98.3024
68 34 1 97.9637 97.8753 98.5177
69 35 1 99.3463 97.7266 99.6404
70 35 1 100.186 97.7504 98.7714
71 36 1 97.8629 99.5895 101.645
72 36 1 97.1232 100.492 101.552
73 37 1 97.3461 99.9477 98.3508
74 37 1 97.9381 98.9805 98.6908
75 38 1 98.664 101.023 99.1971
76 38 1 99.3204 100.136 98.9325
77 39 1 102.615 98.3511 97.2617
78 39 1 101.453 97.9897 102.841
79 40 1 101.463 102.946 97.3844
80 40 1 102.21 102.721 98.2845
81 41 1 99.7945 99.5636 99.7816
82 41 1 99.1862 98.6645 100.188
83 42 1 100.368 101.205 97.6481
84 42 1 101.453 101.021 97.1826
85 43 1 101.96 99.6794 100.619
86 43 1 102.679 99.5058 101.617
87 44 1 101.642 99.1932 101.554
88 44 1 101.72 98.0226 101.643
89 45 1 97.2039 99.9493 100.654
90 45 1 97.3237 101.148 100.612
91 46 1 97.2763 102.209 98.1224
92 46 1 97.8347 102.711 97.2126
93 47 1 98.1686 102.485 101.558
94 47 1 98.6369 101.368 101.449
95 48 1 99.6976 102.14 100.076
96 48 1 98.6551 102.865 100.241
97 49 1 100.634 101.198 102.486
98 49 1 100.543 101.315 101.364
99 50 1 101.235 97.3046 101.074
100 50 1 101.407 97.3324 99.9161
101 51 1 102.335 100.711 100.507
102 51 1 101.277 100.641 100.124
103 52 1 97.8869 98.7065 100.126
104 52 1 97.6202 98.7118 101.242
105 53 1 100.817 102.443 100.445
106 53 1 101.087 102.498 99.2159
107 54 1 101.621 100.898 98.2894
108 54 1 101.821 101.926 97.6849
109 55 1 97.7406 98.4037 97.607
110 55 1 97.4704 97.6861 102.684
111 56 1 102.404 98.6439 101.072
112 56 1 102.136 97.5864 100.724
113 57 1 100.104 100.233 100.591
114 57 1 99.6348 101.317 100.782
115 58 1 97.3574 98.7795 102.315
116 58 1 97.2436 99.96 102.471
117 59 1 101.495 101.785 99.8211
118 59 1 102.238 101.008 99.3926
119 60 1 101.405 99.4391 98.4501
120 60 1 100.679 98.6137 98.5292
121 61 1 99.7216 98.6141 99.2098
122 61 1 100.724 99.216 99.3779
123 62 1 97.3577 102.901 98.9693
124 62 1 102.161 102.735 99.3405
125 63 1 102.36 97.3871 102.605
126 63 1 101.76 102.225 102.584
127 64 1 99.5331 98.1502 101.054
128 64 1 100.538 97.8323 100.493
129 65 1 99.2106 98.9647 102.695
130 65 1 99.1485 97.9852 102.031
131 66 1 99.0659 102.626 97.2022
132 66 1 98.6268 102.742 98.2621
133 67 1 97.9808 101.94 100.653
134 67 1 98.6622 101.109 100.411
135 68 1 99.0375 102.21 102.066
136 68 1 99.7636 101.821 102.918
137 69 1 101.048 100.424 101.094
138 69 1 101.57 101.461 100.832
139 70 1 100.237 101.898 99.1867
140 70 1 99.9779 102.114 98.0185
141 71 1 98.4458 97.5612 97.5545
142 71 1 98.4819 97.1598 102.378
143 72 1 101.035 98.2011 99.4894
144 72 1 102.208 98.0745 99.765
145 73 1 100.805 97.8704 97.7901
146 73 1 100.147 98.5909 97.0825
147 74 1 100.551 99.2845 97.716
148 74 1 100.635 100.344 97.1841
149 75 1 99.2407 101.783 98.7495
150 75 1 98.0995 102.044 98.8658
151 76 1 102.823 102.935 100.098
152 76 1 97.1648 98.0118 100.561
153 77 1 102.463 101.377 102.971
154 77 1 101.685 101.328 102.029
155 78 1 100.641 102.891 98.3389
156 78 1 100.956 101.73 98.2969
157 79 1 97.2941 102.885 101.959
158 79 1 97.7116 97.1618 100.839
159 80 1 100.092 99.5309 98.6226
160 80 1 98.979 99.0778 98.6065
161 81 2 102.291 98.577 102.244
162 82 2 100.444 102.234 102.188
163 83 2 100.38 100.328 99.4382
164 84 2 99.5898 97.2419 100.55
165 85 2 102.266 100.149 98.531
166 86 2 98.0753 97.7948 101.675
167 87 2 98.3068 100.455 102.118
168 88 2 102.915 97.9045 101.64
169 89 2 99.214 101.378 97.7745
170 90 2 97.7865 101.101 98.3906
171 91 2 101.491 100.144 99.2647
172 92 2 99.6498 100.691 102.832
173 93 2 100.256 98.8634 100.56
174 94 2 101.296 102.185 101.521
175 95 2 102.617 102.5 97.286
176 96 2 98.3929 99.4612 100.605
177 97 2 101.503 98.5236 100.509
178 98 2 99.5825 102.766 98.9734
179 99 2 101.425 97.5523 98.7359
180 100 2 97.2201 97.4609 97.8181
181 101 2 102.636 100.333 97.5422
182 102 2 101.882 101.809 98.8245
183 103 2 97.7416 97.5678 99.8018
184 104 2 99.4039 97.8686 97.1085
185 105 2 102.832 102.258 101.008
186 106 2 102.66 101.771 100.025
187 107 2 98.6456 99.3644 99.5577
188 108 2 99.6312 101.153 99.6925
189 109 2 101.882 98.4926 98.662
190 110 2 101.152 100.08 102.233
191 111 2 97.9379 101.987 102.428
192 112 2 98.8235 100.074 102.968
193 113 2 100.532 101.376 100.208
194 114 2 100.296 97.0617 99.7178
195 115 2 97.2778 99.3559 97.3418
196 116 2 98.5162 97.1056 99.2518
197 117 2 99.7795 98.3636 98.0189
198 118 2 102.672 99.0208 100.147
199 119 2 100.865 102.081 97.2658
200 120 2 98.3545 98.2825 102.696
ITEM: TIMESTEP
1000
ITEM: NUMBER OF ATOMS
200
ITEM: BOX BOUNDS pp pp pp
9.6996645671645197e+01 1.0300335432835480e+02
9.7026529546522482e+01 1.0297347045347752e+02
9.7026529546522482e+01 1.0297347045347752e+02
ITEM: ATOMS id mol type x y z
1 1 1 99.758 100.323 97.8349
2 1 1 98.6602 100.616 98.1247
3 2 1 99.636 97.1009 102.317
4 2 1 100.309 97.399 101.459
5 3 1 102.477 97.6391 98.78
6 3 1 97.2594 98.3456 99.3058
7 4 1 101.924 97.7053 97.8794
8 4 1 101.395 98.7611 97.5536
9 5 1 102.278 99.3237 97.8709
10 5 1 102.583 99.2206 98.9887
11 6 1 97.2233 100.587 99.1674
12 6 1 97.415 99.4752 99.4873
13 7 1 98.1911 100.073 98.9349
14 7 1 98.915 100.244 99.9932
15 8 1 102.243 102.877 101.575
16 8 1 101.968 102.49 100.503
17 9 1 100.002 102.306 101.173
18 9 1 99.0616 97.1564 101.402
19 10 1 101.298 97.136 102.172
20 10 1 100.441 97.8728 102.42
21 11 1 98.6338 98.7072 101.377
22 11 1 99.4001 99.5249 100.908
23 12 1 102.635 101.247 98.1844
24 12 1 97.386 101.753 97.3876
25 13 1 98.9774 99.5876 101.889
26 13 1 98.1951 99.2768 102.728
27 14 1 102.133 99.4968 102.797
28 14 1 101.096 98.9416 102.46
29 15 1 98.5517 97.889 100.575
30 15 1 98.5464 98.3376 99.3817
31 16 1 99.6451 97.2458 98.0179
32 16 1 100.383 96.9924 97.1184
33 17 1 98.7514 101.368 102.57
34 17 1 98.3725 101.837 97.6831
35 18 1 101.55 100.026 97.5756
36 18 1 100.693 100.307 98.3519
37 19 1 99.504 99.323 97.6581
38 19 1 99.9198 99.6601 102.552
39 20 1 97.7183 102.405 99.7221
40 20 1 97.0444 101.706 99.0856
41 21 1 100.995 99.6487 100.311
42 21 1 100.69 99.4874 101.474
43 22 1 97.8939 100.237 100.037
44 22 1 97.7645 101.364 99.7615
45 23 1 99.6786 101.4 101.879
46 23 1 100.262 100.383 101.824
47 24 1 98.1271 100.531 101.087
48 24 1 99.2215 100.481 101.37
49 25 1 101.724 99.1272 99.5902
50 25 1 102.547 100.009 99.7431
51 26 1 98.2756 99.5875 97.8173
52 26 1 97.8603 100.605 97.3548
53 27 1 102.872 102.011 102.283
54 27 1 97.6399 101.561 101.567
55 28 1 100.751 98.347 101.454
56 28 1 99.8145 98.9095 101.709
57 29 1 99.0546 97.8467 98.6143
58 29 1 98.7223 98.6097 97.6728
59 30 1 102.1 100.323 101.425
60 30 1 102.552 101.385 101.44
61 31 1 99.933 100.985 98.6269
62 31 1 101.018 101.1 99.1297
63 32 1 97.3813 101.122 102.494
64 32 1 102.411 100.453 102.416
65 33 1 98.6745 101.94 99.6681
66 33 1 98.9883 102.14 100.867
67 34 1 102.886 98.5047 98.2567
68 34 1 97.8731 97.7968 98.5421
69 35 1 99.3659 97.7389 99.656
70 35 1 100.164 97.7375 98.7886
71 36 1 97.8807 99.5998 101.718
72 36 1 97.1577 100.552 101.628
73 37 1 97.312 99.8869 98.3669
74 37 1 97.9185 98.917 98.6383
75 38 1 98.5479 101.019 99.162
76 38 1 99.2898 100.185 98.9448
77 39 1 102.588 98.2251 97.2678
78 39 1 101.459 97.9872 102.827
79 40 1 101.443 102.927 97.305
80 40 1 102.078 102.69 98.2953
81 41 1 99.7371 99.5663 99.8125
82 41 1 99.1677 98.6515 100.223
83 42 1 100.445 101.176 97.6584
84 42 1 101.499 100.964 97.0953
85 43 1 102.081 99.5949 100.636
86 43 1 102.733 99.5522 101.673
87 44 1 101.675 99.2465 101.547
88 44 1 101.749 98.0376 101.64
89 45 1 97.1545 99.9453 100.739
90 45 1 97.2719 101.139 100.678
91 46 1 97.0872 102.259 98.2089
92 46 1 97.8147 102.748 97.3885
93 47 1 98.1929 102.451 101.528
94 47 1 98.6642 101.359 101.433
95 48 1 99.6513 102.157 100.068
96 48 1 98.6551 102.824 100.215
97 49 1 100.662 101.183 102.475
98 49 1 100.668 101.404 101.344
99 50 1 101.269 97.3113 101.07
100 50 1 101.421 97.3295 99.9311
101 51 1 102.354 100.702 100.488
102 51 1 101.273 100.708 100.132
103 52 1 97.8889 98.6987 100.093
104 52 1 97.57 98.7424 101.223
105 53 1 100.872 102.457 100.415
106 53 1 101.099 102.499 99.2072
107 54 1 101.569 100.868 98.2591
108 54 1 101.828 101.887 97.66
109 55 1 97.7107 98.3624 97.5896
110 55 1 97.3656 97.6369 102.686
111 56 1 102.479 98.6927 101.119
112 56 1 102.205 97.6133 100.76
113 57 1 100.175 100.256 100.676
114 57 1 99.6699 101.315 100.784
115 58 1 97.3696 98.8046 102.293
116 58 1 97.3404 99.9697 102.59
117 59 1 101.53 101.759 99.8229
118 59 1 102.259 100.986 99.3729
119 60 1 101.417 99.475 98.4398
120 60 1 100.698 98.5956 98.5249
121 61 1 99.7048 98.6602 99.2095
122 61 1 100.689 99.2792 99.3984
123 62 1 97.2542 102.969 99.0257
124 62 1 102.122 102.731 99.3682
125 63 1 102.299 97.392 102.555
126 63 1 101.836 102.189 102.571
127 64 1 99.5801 98.1082 101.073
128 64 1 100.558 97.8229 100.477
129 65 1 99.1908 98.9349 102.661
130 65 1 99.156 98.0093 102.014
131 66 1 99.1396 102.586 97.2175
132 66 1 98.6564 102.749 98.233
133 67 1 97.9284 101.99 100.63
134 67 1 98.6849 101.151 100.374
135 68 1 99.0622 102.224 102.032
136 68 1 99.8163 101.807 102.856
137 69 1 101.114 100.402 101.114
138 69 1 101.612 101.415 100.828
139 70 1 100.234 101.933 99.1101
140 70 1 100.007 102.135 97.9221
141 71 1 98.5126 97.575 97.5456
142 71 1 98.4712 97.0988 102.425
143 72 1 101.001 98.2785 99.5411
144 72 1 102.18 98.1029 99.7029
145 73 1 100.792 97.8499 97.7554
146 73 1 100.172 98.6432 97.0929
147 74 1 100.557 99.3299 97.7447
148 74 1 100.614 100.277 97.1091
149 75 1 99.1972 101.78 98.6783
150 75 1 98.0171 102.015 98.7268
151 76 1 102.856 102.948 100.101
152 76 1 97.1623 98.0271 100.576
153 77 1 102.472 101.376 102.965
154 77 1 101.646 101.154 101.994
155 78 1 100.625 102.88 98.3176
156 78 1 100.958 101.77 98.3653
157 79 1 97.2914 102.891 101.859
158 79 1 97.753 97.1488 100.786
159 80 1 100.035 99.5149 98.6056
160 80 1 98.9509 99.1275 98.5756
161 81 2 102.324 98.6004 102.279
162 82 2 100.51 102.239 102.136
163 83 2 100.401 100.32 99.4897
164 84 2 99.6172 97.2654 100.53
165 85 2 102.265 100.185 98.5778
166 86 2 98.0316 97.7248 101.687
167 87 2 98.2881 100.511 102.183
168 88 2 102.949 97.9202 101.697
169 89 2 99.285 101.345 97.7001
170 90 2 97.6844 101.062 98.3409
171 91 2 101.469 100.149 99.2805
172 92 2 99.6251 100.752 102.778
173 93 2 100.334 98.8608 100.551
174 94 2 101.367 102.189 101.47
175 95 2 102.586 102.553 97.3084
176 96 2 98.3618 99.4791 100.609
177 97 2 101.546 98.4901 100.556
178 98 2 99.5867 102.744 98.9796
179 99 2 101.36 97.5883 98.777
180 100 2 97.0873 97.4372 97.8135
181 101 2 102.648 100.299 97.5373
182 102 2 101.909 101.809 98.8219
183 103 2 97.75 97.5845 99.8065
184 104 2 99.3925 97.8798 97.0567
185 105 2 102.912 102.286 100.991
186 106 2 102.7 101.794 100.057
187 107 2 98.6007 99.362 99.5602
188 108 2 99.6017 101.108 99.6334
189 109 2 101.856 98.5239 98.6779
190 110 2 101.259 100.102 102.247
191 111 2 97.9417 102.105 102.472
192 112 2 98.8717 100.056 103.022
193 113 2 100.547 101.497 100.176
194 114 2 100.299 97.0648 99.7204
195 115 2 97.1764 99.2491 97.3983
196 116 2 98.503 97.0854 99.2249
197 117 2 99.7524 98.417 98.0162
198 118 2 102.747 99.0166 100.145
199 119 2 100.944 101.983 97.1951
200 120 2 98.3574 98.2312 102.658
ITEM: TIMESTEP
2000
ITEM: NUMBER OF ATOMS
200
ITEM: BOX BOUNDS pp pp pp
9.6966461458832271e+01 1.0303353854116773e+02
9.7026529546522482e+01 1.0297347045347752e+02
9.7026529546522482e+01 1.0297347045347752e+02
ITEM: ATOMS id mol type x y z
1 1 1 99.7902 100.279 97.7889
2 1 1 98.6566 100.578 98.1139
3 2 1 99.6551 97.0477 102.375
4 2 1 100.208 97.505 101.471
5 3 1 102.55 97.6323 98.8565
6 3 1 97.2422 98.3876 99.2908
7 4 1 102.009 97.6802 97.893
8 4 1 101.42 98.7087 97.6504
9 5 1 102.351 99.2705 97.8447
10 5 1 102.66 99.2026 98.9617
11 6 1 97.2036 100.63 99.1954
12 6 1 97.4128 99.4907 99.5517
13 7 1 98.1318 100.119 98.9578
14 7 1 98.9299 100.229 99.9525
15 8 1 102.309 102.823 101.628
16 8 1 102.025 102.464 100.545
17 9 1 100.052 102.391 101.185
18 9 1 99.1099 97.1623 101.417
19 10 1 101.393 97.1265 102.199
20 10 1 100.504 97.8534 102.502
21 11 1 98.607 98.8231 101.61
22 11 1 99.3146 99.5238 100.911
23 12 1 102.651 101.289 98.1625
24 12 1 97.3623 101.676 97.3437
25 13 1 99.126 99.7329 101.95
26 13 1 98.1698 99.4291 102.648
27 14 1 102.153 99.4737 102.786
28 14 1 101.005 98.964 102.577
29 15 1 98.5 97.8968 100.502
30 15 1 98.4176 98.3429 99.3236
31 16 1 99.5892 97.2071 98.0304
32 16 1 100.31 96.8629 97.212
33 17 1 98.7819 101.336 102.602
34 17 1 98.3286 101.808 97.6716
35 18 1 101.596 100.008 97.5842
36 18 1 100.731 100.27 98.3481
37 19 1 99.4904 99.3185 97.6616
38 19 1 100.029 99.592 102.579
39 20 1 97.6806 102.401 99.7703
40 20 1 96.962 101.757 99.0475
41 21 1 100.962 99.6697 100.265
42 21 1 100.711 99.4977 101.432
43 22 1 97.8825 100.279 100.02
44 22 1 97.7408 101.377 99.7138
45 23 1 99.6736 101.413 101.906
46 23 1 100.15 100.34 101.77
47 24 1 98.0146 100.576 101.094
48 24 1 99.1869 100.553 101.276
49 25 1 101.803 99.1173 99.6079
50 25 1 102.555 100.025 99.7551
51 26 1 98.2833 99.5679 97.8079
52 26 1 97.8491 100.588 97.3263
53 27 1 102.934 102.025 102.265
54 27 1 97.5606 101.498 101.512
55 28 1 100.847 98.3894 101.48
56 28 1 99.8041 98.9539 101.691
57 29 1 98.9814 97.8668 98.5964
58 29 1 98.7244 98.5701 97.7099
59 30 1 101.995 100.347 101.434
60 30 1 102.512 101.439 101.385
61 31 1 99.9496 100.961 98.5935
62 31 1 101.018 101.138 99.1063
63 32 1 97.285 101.04 102.457
64 32 1 102.336 100.46 102.427
65 33 1 98.652 101.91 99.7303
66 33 1 99.0554 102.099 100.877
67 34 1 102.963 98.4936 98.2498
68 34 1 97.8664 97.8751 98.546
69 35 1 99.2551 97.7988 99.6851
70 35 1 100.099 97.7423 98.8717
71 36 1 97.7853 99.653 101.687
72 36 1 97.0527 100.563 101.546
73 37 1 97.3053 99.9725 98.3199
74 37 1 97.868 98.972 98.6088
75 38 1 98.5639 101.065 99.1213
76 38 1 99.2267 100.123 98.9552
77 39 1 102.649 98.2761 97.2944
78 39 1 101.545 97.986 102.834
79 40 1 101.469 102.896 97.3695
80 40 1 102.247 102.66 98.2769
81 41 1 99.7635 99.6096 99.7742
82 41 1 99.1199 98.7329 100.185
83 42 1 100.427 101.17 97.5925
84 42 1 101.519 100.945 97.1783
85 43 1 102.013 99.5692 100.714
86 43 1 102.78 99.5327 101.655
87 44 1 101.649 99.1868 101.645
88 44 1 101.81 97.9903 101.695
89 45 1 97.0997 99.9485 100.669
90 45 1 97.2827 101.135 100.597
91 46 1 97.2034 102.256 98.1643
92 46 1 97.8187 102.706 97.2422
93 47 1 98.1791 102.505 101.453
94 47 1 98.6172 101.388 101.48
95 48 1 99.6287 102.173 99.992
96 48 1 98.618 102.829 100.285
97 49 1 100.716 101.156 102.428
98 49 1 100.643 101.488 101.285
99 50 1 101.169 97.3049 101.094
100 50 1 101.443 97.2409 99.9423
101 51 1 102.347 100.73 100.502
102 51 1 101.283 100.72 100.118
103 52 1 97.8363 98.7187 100.131
104 52 1 97.5146 98.7124 101.255
105 53 1 100.898 102.349 100.439
106 53 1 101.089 102.413 99.2355
107 54 1 101.626 100.896 98.2754
108 54 1 101.871 101.887 97.6895
109 55 1 97.6966 98.4633 97.6169
110 55 1 97.4279 97.6983 102.661
111 56 1 102.475 98.6892 101.139
112 56 1 102.216 97.544 100.8
113 57 1 100.069 100.211 100.609
114 57 1 99.7294 101.317 100.813
115 58 1 97.3643 98.8091 102.285
116 58 1 97.2364 100.01 102.482
117 59 1 101.553 101.745 99.8258
118 59 1 102.266 100.954 99.3615
119 60 1 101.467 99.3945 98.4429
120 60 1 100.747 98.4665 98.558
121 61 1 99.7088 98.6521 99.2447
122 61 1 100.756 99.2118 99.3048
123 62 1 97.3096 102.936 98.917
124 62 1 102.199 102.65 99.3729
125 63 1 102.402 97.3648 102.573
126 63 1 101.895 102.185 102.591
127 64 1 99.4644 98.1598 100.978
128 64 1 100.513 97.9057 100.419
129 65 1 99.1309 98.9615 102.697
130 65 1 99.2175 98.0056 102.016
131 66 1 99.0735 102.601 97.2305
132 66 1 98.54 102.755 98.268
133 67 1 97.9849 101.935 100.624
134 67 1 98.76 101.103 100.46
135 68 1 99.0639 102.227 102.018
136 68 1 99.7846 101.868 102.874
137 69 1 100.978 100.467 101.108
138 69 1 101.586 101.458 100.811
139 70 1 100.202 101.898 99.1164
140 70 1 99.9593 102.114 97.9858
141 71 1 98.3668 97.58 97.5528
142 71 1 98.5007 97.12 102.404
143 72 1 101.132 98.2269 99.54
144 72 1 102.283 98.0821 99.8078
145 73 1 100.741 97.7773 97.6516
146 73 1 100.099 98.645 97.0769
147 74 1 100.56 99.2857 97.8044
148 74 1 100.658 100.281 97.1705
149 75 1 99.1761 101.811 98.6872
150 75 1 98.0145 102.001 98.8294
151 76 1 102.864 102.934 100.09
152 76 1 97.0837 98.0312 100.58
153 77 1 102.467 101.381 102.964
154 77 1 101.702 101.283 102.044
155 78 1 100.573 102.878 98.3875
156 78 1 100.958 101.818 98.2886
157 79 1 97.3408 102.918 101.909
158 79 1 97.7097 97.181 100.8
159 80 1 100.007 99.5742 98.6273
160 80 1 98.9472 99.107 98.6086
161 81 2 102.41 98.5821 102.326
162 82 2 100.523 102.24 102.173
163 83 2 100.37 100.368 99.4563
164 84 2 99.5894 97.2603 100.482
165 85 2 102.361 100.153 98.5424
166 86 2 98.0849 97.7419 101.639
167 87 2 98.2855 100.502 102.137
168 88 2 102.976 97.8783 101.658
169 89 2 99.269 101.365 97.6919
170 90 2 97.6881 101.081 98.322
171 91 2 101.471 100.169 99.2526
172 92 2 99.7328 100.771 102.799
173 93 2 100.258 98.8994 100.554
174 94 2 101.384 102.228 101.515
175 95 2 102.683 102.544 97.3109
176 96 2 98.2723 99.4905 100.684
177 97 2 101.55 98.4445 100.547
178 98 2 99.5121 102.768 99.0134
179 99 2 101.457 97.4827 98.7881
180 100 2 97.0971 97.4307 97.8258
181 101 2 102.684 100.357 97.4792
182 102 2 101.857 101.808 98.8126
183 103 2 97.706 97.6049 99.8384
184 104 2 99.3856 97.8039 97.0821
185 105 2 102.982 102.285 100.938
186 106 2 102.702 101.771 100.023
187 107 2 98.5434 99.3373 99.5636
188 108 2 99.5751 101.184 99.5986
189 109 2 101.955 98.5028 98.6829
190 110 2 101.217 100.064 102.268
191 111 2 97.9537 101.984 102.403
192 112 2 98.9418 100.152 102.969
193 113 2 100.5 101.412 100.117
194 114 2 100.333 97.0277 99.7563
195 115 2 97.1793 99.3427 97.3297
196 116 2 98.4585 97.1077 99.2523
197 117 2 99.7892 98.3863 98.0698
198 118 2 102.759 99.0038 100.157
199 119 2 100.967 101.963 97.1898
200 120 2 98.3436 98.2485 102.622
ITEM: TIMESTEP
3000
ITEM: NUMBER OF ATOMS
200
ITEM: BOX BOUNDS pp pp pp
9.6935973889637268e+01 1.0306402611036273e+02
9.7026529546522482e+01 1.0297347045347752e+02
9.7026529546522482e+01 1.0297347045347752e+02
ITEM: ATOMS id mol type x y z
1 1 1 99.745 100.305 97.8168
2 1 1 98.632 100.642 98.1107
3 2 1 99.6465 97.0629 102.323
4 2 1 100.322 97.3173 101.465
5 3 1 102.558 97.6362 98.7991
6 3 1 97.1999 98.3737 99.2903
7 4 1 102.016 97.7175 97.8449
8 4 1 101.52 98.7745 97.5645
9 5 1 102.447 99.274 97.8482
10 5 1 102.603 99.2266 98.9735
11 6 1 97.1714 100.581 99.1673
12 6 1 97.3982 99.4644 99.4508
13 7 1 98.1662 100.092 98.9603
14 7 1 98.9438 100.233 99.9182
15 8 1 102.304 102.859 101.608
16 8 1 102.015 102.515 100.518
17 9 1 99.9451 102.328 101.224
18 9 1 99.0408 97.1089 101.388
19 10 1 101.403 97.1256 102.178
20 10 1 100.456 97.7805 102.421
21 11 1 98.5892 98.8498 101.629
22 11 1 99.3281 99.4363 100.96
23 12 1 102.677 101.235 98.1112
24 12 1 97.3854 101.584 97.3408
25 13 1 99.196 99.7646 102.049
26 13 1 98.19 99.3893 102.531
27 14 1 102.2 99.4892 102.754
28 14 1 101.056 98.9789 102.5
29 15 1 98.5443 97.9009 100.529
30 15 1 98.4864 98.3633 99.4073
31 16 1 99.6004 97.2095 98.021
32 16 1 100.373 96.9254 97.2029
33 17 1 98.5779 101.221 102.693
34 17 1 98.3152 101.847 97.7436
35 18 1 101.646 100.035 97.5575
36 18 1 100.806 100.253 98.3698
37 19 1 99.4927 99.3321 97.6487
38 19 1 100.099 99.616 102.634
39 20 1 97.6478 102.386 99.7685
40 20 1 97.0012 101.741 99.005
41 21 1 100.953 99.6692 100.346
42 21 1 100.652 99.4471 101.507
43 22 1 97.8856 100.245 100.025
44 22 1 97.6861 101.331 99.6967
45 23 1 99.6892 101.42 101.869
46 23 1 100.13 100.35 101.779
47 24 1 97.9425 100.559 101.06
48 24 1 99.0947 100.494 101.275
49 25 1 101.752 99.1068 99.6198
50 25 1 102.578 99.9867 99.7035
51 26 1 98.238 99.5947 97.8469
52 26 1 97.7044 100.531 97.3685
53 27 1 102.87 102.017 102.217
54 27 1 97.5832 101.545 101.552
55 28 1 100.818 98.3029 101.497
56 28 1 99.7767 98.8676 101.734
57 29 1 99.0026 97.8172 98.5913
58 29 1 98.7157 98.5885 97.7106
59 30 1 101.977 100.382 101.369
60 30 1 102.482 101.502 101.393
61 31 1 99.9684 100.966 98.6323
62 31 1 101.033 101.173 99.0997
63 32 1 97.2785 101.015 102.435
64 32 1 102.337 100.482 102.412
65 33 1 98.68 101.945 99.7358
66 33 1 98.9562 102.112 100.919
67 34 1 102.996 98.4855 98.2927
68 34 1 97.886 97.8402 98.5812
69 35 1 99.2975 97.7208 99.6725
70 35 1 100.165 97.7621 98.8603
71 36 1 97.6813 99.6967 101.581
72 36 1 96.9097 100.599 101.502
73 37 1 97.2331 99.901 98.2794
74 37 1 97.8735 98.9324 98.6809
75 38 1 98.5601 101.04 99.2102
76 38 1 99.2777 100.103 98.8567
77 39 1 102.645 98.2698 97.2654
78 39 1 101.543 97.9985 102.782
79 40 1 101.497 102.897 97.4167
80 40 1 102.316 102.706 98.2929
81 41 1 99.7461 99.591 99.7685
82 41 1 99.1371 98.688 100.209
83 42 1 100.436 101.21 97.6479
84 42 1 101.521 100.985 97.1637
85 43 1 102.038 99.6241 100.623
86 43 1 102.708 99.6111 101.633
87 44 1 101.686 99.2673 101.587
88 44 1 101.826 98.0595 101.637
89 45 1 97.0451 99.9848 100.629
90 45 1 97.1943 101.16 100.595
91 46 1 97.2105 102.258 98.1265
92 46 1 97.7639 102.735 97.2436
93 47 1 98.1668 102.523 101.561
94 47 1 98.6037 101.375 101.562
95 48 1 99.6476 102.147 100.081
96 48 1 98.6154 102.825 100.287
97 49 1 100.645 101.128 102.454
98 49 1 100.638 101.5 101.368
99 50 1 101.284 97.3316 101.125
100 50 1 101.436 97.2746 99.9486
101 51 1 102.381 100.765 100.435
102 51 1 101.209 100.719 100.169
103 52 1 97.7966 98.7391 100.099
104 52 1 97.5279 98.7472 101.226
105 53 1 100.915 102.43 100.492
106 53 1 101.128 102.391 99.2328
107 54 1 101.603 100.901 98.2277
108 54 1 101.873 101.913 97.6866
109 55 1 97.666 98.3494 97.6595
110 55 1 97.3501 97.7429 102.631
111 56 1 102.536 98.7325 101.103
112 56 1 102.231 97.6411 100.716
113 57 1 100.036 100.232 100.635
114 57 1 99.7287 101.342 100.79
115 58 1 97.3306 98.8129 102.288
116 58 1 97.2013 99.9889 102.464
117 59 1 101.594 101.717 99.8963
118 59 1 102.348 101.009 99.3821
119 60 1 101.503 99.4437 98.4282
120 60 1 100.723 98.579 98.5643
121 61 1 99.7358 98.6397 99.2015
122 61 1 100.722 99.2877 99.3878
123 62 1 97.2325 102.948 98.9803
124 62 1 102.243 102.718 99.3715
125 63 1 102.448 97.3895 102.551
126 63 1 101.892 102.236 102.608
127 64 1 99.5033 98.1188 101.057
128 64 1 100.541 97.8321 100.485
129 65 1 99.1192 98.9625 102.682
130 65 1 99.0801 97.9798 102.016
131 66 1 99.1225 102.571 97.2318
132 66 1 98.6788 102.69 98.2838
133 67 1 97.9765 101.938 100.652
134 67 1 98.722 101.096 100.433
135 68 1 99.0196 102.203 102.093
136 68 1 99.8513 101.87 102.846
137 69 1 100.977 100.425 101.182
138 69 1 101.589 101.395 100.863
139 70 1 100.217 101.912 99.1152
140 70 1 100.003 102.131 97.9651
141 71 1 98.398 97.5424 97.5971
142 71 1 98.4646 97.202 102.389
143 72 1 101.084 98.2586 99.5045
144 72 1 102.252 98.072 99.7243
145 73 1 100.805 97.8549 97.6431
146 73 1 100.073 98.6128 97.0244
147 74 1 100.588 99.2213 97.6844
148 74 1 100.676 100.31 97.2543
149 75 1 99.2253 101.775 98.7171
150 75 1 98.0528 101.988 98.8147
151 76 1 102.972 102.976 100.117
152 76 1 97.0816 98.0209 100.613
153 77 1 102.488 101.392 102.962
154 77 1 101.639 101.258 102.033
155 78 1 100.614 102.896 98.3629
156 78 1 101 101.821 98.2855
157 79 1 97.2423 102.906 101.895
158 79 1 97.7021 97.147 100.791
159 80 1 100.104 99.486 98.5923
160 80 1 98.9656 99.1227 98.6
161 81 2 102.454 98.6129 102.263
162 82 2 100.519 102.261 102.121
163 83 2 100.391 100.314 99.468
164 84 2 99.5771 97.2469 100.529
165 85 2 102.327 100.176 98.5604
166 86 2 98.042 97.796 101.617
167 87 2 98.2314 100.393 102.123
168 88 2 103.03 97.8746 101.634
169 89 2 99.2775 101.381 97.6908
170 90 2 97.6319 101.08 98.4026
171 91 2 101.496 100.208 99.2724
172 92 2 99.5927 100.725 102.781
173 93 2 100.258 98.8738 100.594
174 94 2 101.399 102.197 101.513
175 95 2 102.692 102.541 97.3003
176 96 2 98.338 99.4827 100.609
177 97 2 101.569 98.4907 100.615
178 98 2 99.5973 102.77 98.9956
179 99 2 101.44 97.4764 98.757
180 100 2 97.0663 97.4271 97.792
181 101 2 102.715 100.364 97.4834
182 102 2 101.946 101.794 98.8425
183 103 2 97.7305 97.5988 99.8589
184 104 2 99.3463 97.8032 97.073
185 105 2 103.032 102.272 100.948
186 106 2 102.762 101.835 99.9834
187 107 2 98.5725 99.3613 99.5767
188 108 2 99.6115 101.169 99.6429
189 109 2 101.898 98.4689 98.6383
190 110 2 101.219 100.11 102.281
191 111 2 97.8727 102.029 102.421
192 112 2 98.8067 100.09 103.038
193 113 2 100.571 101.516 100.165
194 114 2 100.339 97.0255 99.7511
195 115 2 97.2337 99.2498 97.3044
196 116 2 98.4812 97.0625 99.2622
197 117 2 99.7873 98.3591 98.0348
198 118 2 102.778 98.9956 100.113
199 119 2 100.97 102.003 97.1561
200 120 2 98.2968 98.2973 102.707
ITEM: TIMESTEP
4000
ITEM: NUMBER OF ATOMS
200
ITEM: BOX BOUNDS pp pp pp
9.6905179915277870e+01 1.0309482008472213e+02
9.7026529546522482e+01 1.0297347045347752e+02
9.7026529546522482e+01 1.0297347045347752e+02
ITEM: ATOMS id mol type x y z
1 1 1 99.7667 100.299 97.8767
2 1 1 98.6264 100.581 98.0788
3 2 1 99.6994 97.0069 102.395
4 2 1 100.188 97.4777 101.456
5 3 1 102.563 97.6955 98.8259
6 3 1 97.1894 98.4155 99.2816
7 4 1 101.996 97.8185 97.8857
8 4 1 101.41 98.7267 97.6472
9 5 1 102.37 99.1597 97.8104
10 5 1 102.645 99.1958 98.9537
11 6 1 97.0971 100.578 99.1931
12 6 1 97.3661 99.4637 99.4646
13 7 1 98.1027 100.078 98.9297
14 7 1 98.959 100.26 99.8769
15 8 1 102.383 102.781 101.672
16 8 1 102.086 102.496 100.548
17 9 1 99.9573 102.418 101.248
18 9 1 98.9982 97.2025 101.404
19 10 1 101.434 97.1122 102.203
20 10 1 100.474 97.7835 102.497
21 11 1 98.6081 98.7628 101.54
22 11 1 99.4076 99.4557 100.915
23 12 1 102.689 101.207 98.1086
24 12 1 97.2757 101.593 97.3022
25 13 1 99.0392 99.6987 101.917
26 13 1 98.1842 99.3367 102.7
27 14 1 102.233 99.5241 102.685
28 14 1 101.092 99.0744 102.572
29 15 1 98.4317 97.9786 100.532
30 15 1 98.3528 98.3378 99.3116
31 16 1 99.5671 97.1427 98.0441
32 16 1 100.425 96.9405 97.2549
33 17 1 98.7468 101.364 102.619
34 17 1 98.2585 101.808 97.6931
35 18 1 101.614 99.9116 97.5548
36 18 1 100.784 100.291 98.3215
37 19 1 99.4753 99.3312 97.7017
38 19 1 99.9572 99.6564 102.598
39 20 1 97.613 102.368 99.7735
40 20 1 96.9609 101.718 98.9681
41 21 1 100.941 99.7223 100.335
42 21 1 100.74 99.5 101.536
43 22 1 97.9156 100.242 99.9667
44 22 1 97.6901 101.327 99.6327
45 23 1 99.6704 101.454 101.877
46 23 1 100.153 100.353 101.831
47 24 1 98.013 100.545 101.07
48 24 1 99.1688 100.566 101.336
49 25 1 101.759 99.1109 99.6328
50 25 1 102.598 99.9724 99.7182
51 26 1 98.2567 99.6025 97.8549
52 26 1 97.8225 100.566 97.2949
53 27 1 102.977 102.007 102.271
54 27 1 97.5569 101.462 101.485
55 28 1 100.904 98.3907 101.623
56 28 1 99.8825 98.9445 101.765
57 29 1 98.9196 97.8077 98.5808
58 29 1 98.7164 98.5967 97.6893
59 30 1 102.033 100.31 101.411
60 30 1 102.634 101.371 101.41
61 31 1 99.9895 101.061 98.6333
62 31 1 101.095 101.206 99.1572
63 32 1 97.2218 101.054 102.391
64 32 1 102.395 100.518 102.378
65 33 1 98.6566 101.982 99.6862
66 33 1 98.9809 102.174 100.859
67 34 1 103.06 98.522 98.2692
68 34 1 97.8088 97.7494 98.4416
69 35 1 99.1616 97.7588 99.6544
70 35 1 100.047 97.7483 98.8173
71 36 1 97.8599 99.6262 101.703
72 36 1 97.0071 100.478 101.476
73 37 1 97.1797 99.8636 98.3159
74 37 1 97.8705 98.926 98.5815
75 38 1 98.5801 101.038 99.1287
76 38 1 99.204 100.075 98.8203
77 39 1 102.756 98.2813 97.3034
78 39 1 101.594 98.0255 102.805
79 40 1 101.538 102.888 97.3664
80 40 1 102.316 102.728 98.2773
81 41 1 99.7651 99.6052 99.7631
82 41 1 99.0939 98.7195 100.162
83 42 1 100.43 101.204 97.6198
84 42 1 101.478 100.904 97.2014
85 43 1 102.042 99.5485 100.671
86 43 1 102.813 99.4948 101.654
87 44 1 101.727 99.1692 101.692
88 44 1 101.857 97.9695 101.742
89 45 1 97.2002 99.8233 100.657
90 45 1 97.232 101.087 100.579
91 46 1 97.1891 102.26 98.1271
92 46 1 97.6714 102.755 97.1971
93 47 1 98.1428 102.498 101.501
94 47 1 98.6446 101.424 101.502
95 48 1 99.6255 102.224 100.034
96 48 1 98.5389 102.883 100.229
97 49 1 100.655 101.177 102.418
98 49 1 100.604 101.568 101.329