LAMMPS (23 Jun 2022)
OMP_NUM_THREADS environment is not set. Defaulting to 1 thread. (src/comm.cpp:98)
  using 1 OpenMP thread(s) per MPI task
Reading data file ...
  orthogonal box = (96.95262 96.95262 96.95262) to (103.04738 103.04738 103.04738)
  2 by 2 by 3 MPI processor grid
  reading atoms ...
  200 atoms
  scanning bonds ...
  4 = max bonds/atom
  reading bonds ...
  224 bonds
Finding 1-2 1-3 1-4 neighbors ...
  special bond factors lj:    0        0        0       
  special bond factors coul:  0        0        0       
     4 = max # of 1-2 neighbors
     4 = max # of 1-3 neighbors
    10 = max # of 1-4 neighbors
    12 = max # of special neighbors
  special bonds CPU = 0.001 seconds
  read_data CPU = 0.007 seconds
Finding 1-2 1-3 1-4 neighbors ...
  special bond factors lj:    0        1        1       
  special bond factors coul:  0        0        0       
     4 = max # of 1-2 neighbors
     4 = max # of 1-3 neighbors
    10 = max # of 1-4 neighbors
    12 = max # of special neighbors
  special bonds CPU = 0.000 seconds
Generated 0 of 1 mixed pair_coeff terms from geometric mixing rule
Neighbor list info ...
  update every 1 steps, delay 0 steps, check yes
  max neighbors/atom: 2000, page size: 100000
  master list distance cutoff = 5.5
  ghost atom cutoff = 5.5
  binsize = 2.75, bins = 3 3 3
  1 neighbor lists, perpetual/occasional/extra = 1 0 0
  (1) pair lj/cut, perpetual
      attributes: half, newton on
      pair build: half/bin/newton
      stencil: half/bin/3d
      bin: standard
WARNING: Proc sub-domain size < neighbor skin, could lead to lost atoms (src/domain.cpp:970)
Setting up Verlet run ...
  Unit style    : lj
  Current step  : 0
  Time step     : 0.002
WARNING: Inconsistent image flags (src/domain.cpp:819)
Per MPI rank memory allocation (min/avg/max) = 8.436 | 8.437 | 8.438 Mbytes
   Step          Temp         Density         PotEng        Enthalpy        Press           Pxx            Pyy            Pzz            Pxy            Pxz            Pyz             Lx             Ly             Lz             Xy             Yz             Xz          Density    
         0   1.5            0.97174574    -4.3166807      0.38429432     2.1751424      2.9963332      1.5035401      2.025554       0.095967506    0.33117237     1.0030634      6.094761       6.094761       6.094761       0              0              0              0.97174574   
      1000   1.4694288      0.83112401    -3.0161853      0.67427301     1.1313379      1.7649974      1.7350216     -0.10600537    -0.43635725     0.17185315     0.045379915    6.4207479      6.4207479      6.4207479      0              0              0              0.83112401   
      2000   1.4552165      0.78368038    -2.7964987      0.69379687     0.93926588     1.5160673      0.10652428     1.1952061      0.0057551616   0.27509759    -0.14157713     6.5477874      6.5477874      6.5477874      0              0              0              0.78368038   
      3000   1.4805231      0.82051968    -2.8165586      1.4738758      1.5520903      1.0314236      2.6308798      0.99396755     0.048044602   -0.087290935    0.20536813     6.44829        6.44829        6.44829        0              0              0              0.82051968   
      4000   1.5896588      0.79546497    -2.6983726      0.89787884     0.88490826     0.75133094     0.77771322     1.1256806      0.46881339     0.14151405    -0.38112948     6.5152918      6.5152918      6.5152918      0              0              0              0.79546497   
      5000   1.4888078      0.81329981    -3.0592515     -0.058559282    0.5757028      0.32908239     1.5349951     -0.13696907    -0.41209909     0.15189765     0.23016226     6.4673148      6.4673148      6.4673148      0              0              0              0.81329981   
      6000   1.4354899      0.8362879     -3.0286827      1.4079153      1.7441387      2.2953526      1.9528311      0.9842324     -0.072623465   -0.60116881    -0.026703103    6.407505       6.407505       6.407505       0              0              0              0.8362879    
      7000   1.4552673      0.77832138    -2.6107929      0.96123282     0.99061863     1.3040105      0.22501207     1.4428333     -0.395759       0.38611638     0.51638615     6.5627809      6.5627809      6.5627809      0              0              0              0.77832138   
      8000   1.5095976      0.78619448    -2.9356964      0.010222801    0.49519155     0.90536198     0.031440359    0.54877232     0.68307154     0.079748502   -0.48024        6.5408004      6.5408004      6.5408004      0              0              0              0.78619448   
      9000   1.3960513      0.84085044    -3.1386953      1.2192474      1.7385241      2.1175702      1.0681999      2.0298021      0.85593925     0.6718461     -0.14465241     6.3958948      6.3958948      6.3958948      0              0              0              0.84085044   
     10000   1.3317433      0.81866368    -3.0449275      0.57877621     1.2176334      1.0624349      0.8404691      1.7499961     -0.23355629     0.0048210423   0.33617004     6.4531593      6.4531593      6.4531593      0              0              0              0.81866368   
     11000   1.3661406      0.79802487    -2.9021339      0.57763749     1.0452722      1.8590987      0.63277242     0.64394565    -0.53528668    -0.19203143    -0.12968267     6.5083178      6.5083178      6.5083178      0              0              0              0.79802487   
     12000   1.5211462      0.82200247    -3.0639103      1.2863259      1.5542763      1.9452712      1.9959027      0.72165505    -0.18812327     0.43872865     0.83808508     6.4444103      6.4444103      6.4444103      0              0              0              0.82200247   
     13000   1.5439474      0.80926802    -3.0765923      0.88839941     1.2217374      1.0694964      1.3938092      1.2019067     -0.62237493     0.073803236   -0.47479929     6.4780372      6.4780372      6.4780372      0              0              0              0.80926802   
     14000   1.3978037      0.82266651    -3.2083035      0.30696036     1.0687499      1.4623071      0.81887417     0.9250683     -0.23356489    -0.19327416    -0.35677617     6.442676       6.442676       6.442676       0              0              0              0.82266651   
     15000   1.3630153      0.80530246    -2.9128551      1.4077357      1.6737776      2.0299995      1.626956       1.3643771     -0.28586681     0.75350236    -0.21075105     6.488653       6.488653       6.488653       0              0              0              0.80530246   
     16000   1.2563686      0.78992161    -2.6865743      0.19082345     0.71973894     0.36848661     1.2651625      0.52556771    -0.30308241    -0.23001272    -0.19094362     6.5304969      6.5304969      6.5304969      0              0              0              0.78992161   
     17000   1.3547595      0.83117584    -3.1777207      1.027967       1.650042       1.9203492      1.3987527      1.6310242     -0.271646      -0.032553698    0.058917307    6.4206144      6.4206144      6.4206144      0              0              0              0.83117584   
     18000   1.2838143      0.82532458    -3.1845162     -0.32498828     0.70785467     1.3018156      0.4622356      0.35951284     1.252875       0.36894086     0.60809622     6.435752       6.435752       6.435752       0              0              0              0.82532458   
     19000   1.234248       0.82868366    -3.0768699      0.25354694     1.1212102      2.0729416      0.85005782     0.44063123    -0.25148802    -0.086560633   -0.17059284     6.4270444      6.4270444      6.4270444      0              0              0              0.82868366   
     20000   1.3720601      0.80868848    -3.1057534     -0.068051457    0.7277478      0.7794845      0.1035942      1.3001647     -0.18186663    -0.11448791    -0.015944751    6.4795843      6.4795843      6.4795843      0              0              0              0.80868848   
     21000   1.4593495      0.82658884    -3.0938394     -0.0012520644   0.68720209     1.1395884      1.0745206     -0.15250276    -0.20271169    -0.53663653     0.27188334     6.4324692      6.4324692      6.4324692      0              0              0              0.82658884   
     22000   1.2289356      0.8406808     -3.2817416      0.012593166    1.1159261      1.418634       0.95555597     0.97358848     0.63684597     0.72145091    -0.2615954      6.3963249      6.3963249      6.3963249      0              0              0              0.8406808    
     23000   1.228754       0.86271756    -3.2979215      0.61793192     1.6328405      1.1567094      2.1033481      1.638464      -0.39725063    -0.13897937    -0.85141683     6.3413932      6.3413932      6.3413932      0              0              0              0.86271756   
     24000   1.2857715      0.8344546     -3.2339247      0.17189157     1.1278809      1.2447806      0.77682402     1.362038      -0.41089808     0.52844768     0.41731155     6.412194       6.412194       6.412194       0              0              0              0.8344546    
     25000   1.1684038      0.81553205    -3.3502703     -1.34541        0.19351652     0.13037948     0.76635667    -0.31618659    -0.23086024    -0.30497402     0.17849097     6.4614088      6.4614088      6.4614088      0              0              0              0.81553205   
     26000   1.2035767      0.84138436    -3.3316556     -0.066449126    1.1235298      1.0499472      1.4629237      0.85771833    -0.24706118     0.42450436     0.41842148     6.3945416      6.3945416      6.3945416      0              0              0              0.84138436   
     27000   1.2061916      0.84236571    -3.185223       0.50383226     1.4464294      1.5032447      0.82614764     2.009896      -0.33312966    -0.55728217    -0.21126668     6.3920574      6.3920574      6.3920574      0              0              0              0.84236571   
     28000   1.2359693      0.86214635    -3.4784458      0.83469872     1.9347037      2.3632492      1.9900977      1.4507641      0.43127024    -0.088541086   -0.33045527     6.3427933      6.3427933      6.3427933      0              0              0              0.86214635   
     29000   1.1013989      0.82764106    -3.4930097     -1.8392203      0.0074875368  -0.04377569     0.43030967    -0.36407137    -0.78439545    -0.050901197   -0.36214942     6.4297421      6.4297421      6.4297421      0              0              0              0.82764106   
     30000   1.180365       0.85034209    -3.3451865     -0.4188829      0.90028716     0.51334078     1.4429147      0.74460601    -0.41185121    -0.3788048     -0.7482406      6.3720083      6.3720083      6.3720083      0              0              0              0.85034209   
     31000   1.230233       0.85206766    -3.5080763     -1.0554589      0.47754113     0.75098034     0.54185143     0.13979161    -0.045268632   -0.51671247    -0.75279079     6.367704       6.367704       6.367704       0              0              0              0.85206766   
     32000   1.2189659      0.82855394    -3.4298855     -1.6667266     -0.042292159    0.87086838    -0.44450265    -0.55324221    -0.039591905    0.56166671     0.2218117      6.4273798      6.4273798      6.4273798      0              0              0              0.82855394   
     33000   1.2262424      0.8460734     -3.4547914     -0.56240675     0.81701297     0.62801199     0.38054492     1.442482       0.85878918    -0.046568186   -0.1873675      6.3827066      6.3827066      6.3827066      0              0              0              0.8460734    
     34000   1.233972       0.84539855    -3.4332373     -1.1417202      0.34570186     0.57139726     0.74780485    -0.28209652    -0.44970661     0.14602841     0.35027793     6.3844045      6.3844045      6.3844045      0              0              0              0.84539855   
     35000   1.1853775      0.85069995    -3.5997791     -1.137926       0.53569133     0.99208749     0.61211913     0.002867383    0.097721668    0.0028180203   0.27000831     6.3711147      6.3711147      6.3711147      0              0              0              0.85069995   
     36000   1.0528174      0.88506111    -3.6327         0.56479005     2.113011       1.4967042      2.5814078      2.2609211     -0.052514661   -0.22045312     1.0051473      6.2875745      6.2875745      6.2875745      0              0              0              0.88506111   
     37000   1.18216        0.85179588    -3.7274614     -1.4672699      0.38394133     0.31599794     0.46477083     0.37105523    -0.45315527     0.16037781    -0.34459466     6.3683812      6.3683812      6.3683812      0              0              0              0.85179588   
     38000   1.180334       0.85684198    -3.5481046     -0.60384114     0.92119469     1.6484536      0.79552704     0.31960344     0.64485801     0.032105827    0.13733976     6.355855       6.355855       6.355855       0              0              0              0.85684198   
     39000   1.2492989      0.85982849    -3.4325593      0.53069878     1.6404586      1.721227       1.3785235      1.8216252      0.49174766     0.21493526     0.21661544     6.3484877      6.3484877      6.3484877      0              0              0              0.85982849   
     40000   1.0213507      0.8837976     -3.6471018      0.005546465    1.7099735      1.4229651      2.0561886      1.6507669     -0.034018109    0.22532792    -0.18975246     6.2905694      6.2905694      6.2905694      0              0              0              0.8837976    
     41000   1.02789        0.8438809     -3.5451398     -1.5043241      0.38871449     0.85526256     0.22437454     0.086506364   -0.43088906    -0.94087484    -0.44158561     6.3882295      6.3882295      6.3882295      0              0              0              0.8438809    
     42000   1.1385545      0.88745712    -3.6185166      0.53028611     1.9762138      1.6873022      1.4216009      2.8197383      0.33389152    -0.13704632    -0.90118205     6.2819108      6.2819108      6.2819108      0              0              0              0.88745712   
     43000   1.0813047      0.85172165    -3.4551499     -1.576619       0.2049425      0.71481317    -0.32625266     0.226267       0.50062194     0.092594312    0.55891808     6.3685662      6.3685662      6.3685662      0              0              0              0.85172165   
     44000   1.0725699      0.89483257    -3.795118      -0.79272877     1.140162       1.0128268      2.0337053      0.37395395    -0.76877765     0.15255642     0.16579418     6.2646041      6.2646041      6.2646041      0              0              0              0.89483257   
     45000   1.1389855      0.85144832    -3.6344219     -0.78938687     0.88635712     0.38472891     1.346516       0.92782641     0.10821681    -0.038019047   -0.3853077      6.3692476      6.3692476      6.3692476      0              0              0              0.85144832   
     46000   0.98592996     0.892986      -3.7513633     -0.26477983     1.6358554      1.8747432      0.94707903     2.085744      -0.71806692    -0.59891086     0.39487579     6.2689193      6.2689193      6.2689193      0              0              0              0.892986     
     47000   0.99069043     0.86120286    -3.7564527     -2.4616628     -0.14391136     0.21700524    -0.44903922    -0.19970009    -0.066848578   -0.10700919    -0.097965686    6.3451088      6.3451088      6.3451088      0              0              0              0.86120286   
     48000   0.94834712     0.86991415    -3.6575045     -0.10312089     1.6915683      2.0517134      1.6274471      1.3955443     -0.23523923    -0.28881122     0.45983284     6.3238578      6.3238578      6.3238578      0              0              0              0.86991415   
     49000   1.0732103      0.89976776    -3.8812332     -1.0019224      1.0449938      0.93918576     1.3015732      0.89422257     0.46189885    -0.083026478    0.19522287     6.2531294      6.2531294      6.2531294      0              0              0              0.89976776   
     50000   1.0305429      0.8909975     -3.7684422     -0.57201874     1.3432502      1.6615726      0.15429997     2.213878      -0.66874024    -0.21286578     0.79098081     6.2735794      6.2735794      6.2735794      0              0              0              0.8909975    
     51000   1.0944336      0.88630187    -3.8741102     -0.86209934     1.1107527      1.6622686      1.0005031      0.66948656    -0.34875348    -0.017900113    0.063709866    6.284639       6.284639       6.284639       0              0              0              0.88630187   
     52000   1.0093848      0.88439822    -3.9319764     -1.0763881      1.0846593      1.2609099      1.4159839      0.57708422     0.050139416   -0.26793726     0.24089053     6.289145       6.289145       6.289145       0              0              0              0.88439822   
     53000   1.0507454      0.87483758    -3.763666      -0.66601077     1.2163564      0.66401465     1.5992598      1.3857948     -0.63008621     0.23300122     0.13451831     6.3119723      6.3119723      6.3119723      0              0              0              0.87483758   
     54000   1.0250644      0.90634114    -3.9902834     -0.75899557     1.4018455      2.0386294      1.3487363      0.81817072    -0.12856402     0.1689399     -0.21506283     6.2379755      6.2379755      6.2379755      0              0              0              0.90634114   
     55000   0.99519518     0.90601339    -4.090095      -2.3330048      0.22383586     1.2391789     -0.17192005    -0.39575132    -0.098335314   -0.37428308     0.29857043     6.2387276      6.2387276      6.2387276      0              0              0              0.90601339   
     56000   0.99241446     0.87747185    -3.8750193     -1.3197623      0.85679412     1.156405       1.4686762     -0.05469885    -0.53941686     0.31091838     0.075864804    6.3056495      6.3056495      6.3056495      0              0              0              0.87747185   
     57000   0.92145505     0.87948626    -3.8558803     -0.98792694     1.1934482      1.2151331      1.1564658      1.2087457     -0.29201097    -0.18443813    -0.32473461     6.3008316      6.3008316      6.3008316      0              0              0              0.87948626   
     58000   0.86623435     0.8995509     -4.0185175     -1.1842251      1.2605469      0.83066745     1.3082484      1.6427249      0.095204429   -0.052231888    0.27688403     6.2536319      6.2536319      6.2536319      0              0              0              0.8995509    
     59000   0.92262792     0.89004063    -3.9326833     -1.2451053      1.0604072      0.94900526     0.5809633      1.6512531      0.3934462     -0.38866073    -0.12831131     6.2758268      6.2758268      6.2758268      0              0              0              0.89004063   
     60000   1.0307887      0.89958004    -3.8960634     -0.71495527     1.3433641      1.3975534      1.5007041      1.1318347     -0.19178625    -0.86515525     0.19031879     6.2535644      6.2535644      6.2535644      0              0              0              0.89958004   
     61000   0.8994012      0.9011284     -4.0478808     -1.3696596      1.0943507      1.5023571      0.58654054     1.1941544      0.54679084     0.3262286     -0.071271603    6.2499806      6.2499806      6.2499806      0              0              0              0.9011284    
     62000   0.87464282     0.91225938    -4.1812708     -1.6636034      1.005362       1.5814534      0.60574403     0.82888858     0.21609035     0.29834456     0.36104223     6.2244567      6.2244567      6.2244567      0              0              0              0.91225938   
     63000   0.95132621     0.90974955    -4.0939099     -1.5872328      0.89885134     0.93675608     0.41398586     1.3458121     -0.33183687     0.097382639   -0.31411881     6.2301755      6.2301755      6.2301755      0              0              0              0.90974955   
     64000   0.90651934     0.90156879    -4.1057172     -2.2146438      0.44102556     0.17863382     0.46037349     0.68406937    -0.47369546    -0.41185084    -0.34095473     6.2489628      6.2489628      6.2489628      0              0              0              0.90156879   
     65000   0.84120249     0.92581986    -4.1973733     -2.3549274      0.49401007     0.39806132     0.51535935     0.56860953    -0.30000332    -0.23406146     0.15355153     6.1939172      6.1939172      6.1939172      0              0              0              0.92581986   
     66000   0.78173381     0.92746731    -4.2877638     -0.89776439     1.8745478      1.8064027      1.5160167      2.3012241     -0.059844228    0.076842178   -0.012245798    6.1902476      6.1902476      6.1902476      0              0              0              0.92746731   
     67000   0.95587066     0.90786671    -4.234925      -2.5334905      0.22679955     0.39543209     0.17540213     0.10956443     0.17565855    -0.055008448   -0.29820885     6.2344794      6.2344794      6.2344794      0              0              0              0.90786671   
     68000   0.84565464     0.93666985    -4.2887735     -1.5346149      1.2704811      0.68919341     1.1774144      1.9448356      0.62071173     0.16309144    -0.30350699     6.1699084      6.1699084      6.1699084      0              0              0              0.93666985   
     69000   0.77759509     0.92623484    -4.1649539     -1.6693641      1.1241368      0.091963151    1.7420934      1.5383539     -0.52352157    -0.52096937    -0.046956764    6.1929921      6.1929921      6.1929921      0              0              0              0.92623484   
     70000   0.78057459     0.92651257    -4.3128854     -2.0079085      0.96017806     0.98088937     0.32898016     1.5706647      0.019317554    0.33725552     0.14154425     6.1923732      6.1923732      6.1923732      0              0              0              0.92651257   
     71000   0.80939091     0.94268154    -4.3589767     -1.914207       1.0598772      0.59827124     0.93041038     1.65095       -0.26990596    -0.62106873    -0.52091446     6.1567648      6.1567648      6.1567648      0              0              0              0.94268154   
     72000   0.72317619     0.95158422    -4.4056328     -1.5347816      1.549794       1.3774509      1.7485957      1.5233353     -0.24373229    -0.050391301   -0.29600237     6.1375044      6.1375044      6.1375044      0              0              0              0.95158422   
     73000   0.76486561     0.93638554    -4.368722      -2.2283438      0.85025196     0.52004951     0.46222655     1.5684798      0.49335535    -0.30202799    -0.27158583     6.1705327      6.1705327      6.1705327      0              0              0              0.93638554   
     74000   0.72337485     0.93942444    -4.4594141     -2.5720299      0.68983405     0.84991461     0.68472675     0.5348608      0.37631919     0.13192259     0.33982837     6.163872       6.163872       6.163872       0              0              0              0.93942444   
     75000   0.8016189      0.93898632    -4.4094565     -2.2793421      0.79702706     0.21031938     1.4324483      0.74831354     0.22694033    -0.53237929    -0.88936557     6.1648305      6.1648305      6.1648305      0              0              0              0.93898632   
     76000   0.71460999     0.955564      -4.3963515     -1.8136934      1.3170301      1.7129089      1.1612221      1.0769595     -0.99243566    -0.47010189     0.10281283     6.1289719      6.1289719      6.1289719      0              0              0              0.955564     
     77000   0.74502934     0.95424808    -4.5293462     -1.5804568      1.5935363      2.151798       1.0170863      1.6117244     -0.22233981    -0.5208463      0.6939765      6.131788       6.131788       6.131788       0              0              0              0.95424808   
     78000   0.71341211     0.94168486    -4.415471      -1.9372838      1.2099962      1.23999        0.95864791     1.4313508     -0.18805463     0.14296339     0.20017912     6.1589361      6.1589361      6.1589361      0              0              0              0.94168486   
     79000   0.69428447     0.96443584    -4.5626492     -1.9005919      1.4254693      1.0550048      1.8283717      1.3930313     -0.38291744    -0.29929892     0.64612581     6.1101206      6.1101206      6.1101206      0              0              0              0.96443584   
     80000   0.79134746     0.94217472    -4.6280222     -2.995399       0.38675171     0.1949609      0.58627517     0.37901907    -0.050022987   -0.076691208    0.080552762    6.1578685      6.1578685      6.1578685      0              0              0              0.94217472   
     81000   0.68937014     0.95487312    -4.6675832     -2.7667122      0.75694192     0.33432909     1.1826478      0.75384887     0.26968261    -0.42331457     0.14469971     6.1304498      6.1304498      6.1304498      0              0              0              0.95487312   
     82000   0.70480699     0.96228434    -4.603081      -2.2050448      1.1775839      1.0185062      1.5286527      0.98559277     0.26901916     0.41331857    -0.26829859     6.1146709      6.1146709      6.1146709      0              0              0              0.96228434   
     83000   0.6361924      0.96993183    -4.6835505     -2.4227535      1.1562291      1.3928909      1.3905092      0.68528726     0.3004974     -0.061638724    0.040850258    6.098558       6.098558       6.098558       0              0              0              0.96993183   
     84000   0.65024637     0.95739382    -4.5234878     -2.0521115      1.306306       0.74576009     1.126356       2.046802       0.095238135    0.39274159     0.66064652     6.1250648      6.1250648      6.1250648      0              0              0              0.95739382   
     85000   0.65012176     0.97534078    -4.8171772     -2.8813748      0.85607932     0.078165927    1.1128141      1.377258       0.57993411     0.10205418     0.14802087     6.0872635      6.0872635      6.0872635      0              0              0              0.97534078   
     86000   0.65688816     0.95044772    -4.6719122     -3.2320389      0.39700003     0.74308509     0.33994643     0.10796856    -0.0035434955  -0.448357      -0.11906395     6.1399497      6.1399497      6.1399497      0              0              0              0.95044772   
     87000   0.64719768     0.96735373    -4.7351237     -2.6550118      0.97981452     0.28437281     1.5129485      1.1421223      0.078030298   -0.45154852    -0.12213883     6.1039709      6.1039709      6.1039709      0              0              0              0.96735373   
     88000   0.57518679     0.97307622    -4.8040089     -2.6081199      1.1831038      0.36976325     1.8513251      1.3282231      0.11715444    -0.13537246     0.015514604    6.0919819      6.0919819      6.0919819      0              0              0              0.97307622   
     89000   0.63312193     0.96480106    -4.7833827     -2.9507071      0.77863049     0.44038142     1.2274565      0.66805358     0.013785984   -0.072815615    0.40834406     6.1093495      6.1093495      6.1093495      0              0              0              0.96480106   
     90000   0.57292308     0.99014153    -4.8274446     -2.2713938      1.5310857      1.3003142      2.358289       0.93465378    -0.74718489    -0.17091052    -0.17071643     6.05678        6.05678        6.05678        0              0              0              0.99014153   
     91000   0.55520735     0.95531187    -4.6223081     -3.0750991      0.62404625     0.60106082     0.84691564     0.42416228    -0.1034245     -0.043244752   -0.31175263     6.1295111      6.1295111      6.1295111      0              0              0              0.95531187   
     92000   0.5454861      0.9775437     -4.7917062     -2.962999       0.90162335     0.58087769     1.4685907      0.6554017      0.51064087    -0.70925276    -0.27083308     6.0826874      6.0826874      6.0826874      0              0              0              0.9775437    
     93000   0.59524588     0.97778613    -4.8232732     -2.7728571      1.0329081      1.7258825      1.0865484      0.28629334     0.38373187    -0.52733901     0.15040758     6.0821847      6.0821847      6.0821847      0              0              0              0.97778613   
     94000   0.60238494     0.98181292    -4.9899153     -2.7422624      1.2036967      0.81751113     1.3397478      1.453831       0.060383968   -0.042855299    0.17282409     6.0738582      6.0738582      6.0738582      0              0              0              0.98181292   
     95000   0.55490894     0.98164003    -4.8187965     -2.5677307      1.2697641      1.2707936      2.2784857      0.26001293     0.22577716    -0.29790622     0.6409261      6.0742147      6.0742147      6.0742147      0              0              0              0.98164003   
     96000   0.53388318     0.98507115    -4.8817199     -2.8551343      1.1012781      1.1281004      1.397164       0.77856999     0.62751764     0.32222452    -0.072496949    6.0671541      6.0671541      6.0671541      0              0              0              0.98507115   
     97000   0.55054257     0.97493945    -4.9610862     -3.822198       0.28114011    -0.090265663    0.55076277     0.38292323     0.18436517     0.055736878    0.12281295     6.0880986      6.0880986      6.0880986      0              0              0              0.97493945   
     98000   0.4568269      0.99202717    -5.0006553     -3.4355089      0.79662688     0.89954848     0.38346548     1.1068667      0.74031645    -0.22003656    -0.19874449     6.05294        6.05294        6.05294        0              0              0              0.99202717   
     99000   0.48078816     0.98984311    -4.9115206     -2.5427852      1.4858076      1.5519339      1.4915213      1.4139677     -0.18226996    -0.71925741     0.47682761     6.0573886      6.0573886      6.0573886      0              0              0              0.98984311   
    100000   0.4758459      0.99034243    -4.9891958     -3.0762091      1.0828825      1.1656376      0.82623975     1.25677        0.28359441    -0.53690285    -0.16068579     6.0563705      6.0563705      6.0563705      0              0              0              0.99034243   
    101000   0.52043245     0.98871717    -5.0251327     -3.7083269      0.48542445     0.85997009     0.48237851     0.11392474     0.20382985     0.074957763   -0.11853633     6.0596871      6.0596871      6.0596871      0              0              0              0.98871717   
    102000   0.43665258     0.9939757     -5.0737601     -3.3690143      0.95154368     1.3363229      0.54799746     0.97031071     0.13645243    -0.36228596    -0.068055352    6.0489822      6.0489822      6.0489822      0              0              0              0.9939757    
    103000   0.49355141     0.98828589    -4.9997996     -3.2868672      0.87715487     1.060226       0.50070069     1.0705379      0.32693035    -0.47835902    -0.0089217892   6.0605685      6.0605685      6.0605685      0              0              0              0.98828589   
    104000   0.48877878     0.99508082    -5.0987677     -3.4311118      0.84867148     1.0093855      0.61482433     0.92180459     0.21293316     0.13601924    -0.10194727     6.046742       6.046742       6.046742       0              0              0              0.99508082   
    105000   0.50162653     0.99998012    -5.1270786     -3.3967325      0.89240814     0.85721657     0.56272663     1.2572812      0.56917215    -0.57542026     0.11098541     6.0368507      6.0368507      6.0368507      0              0              0              0.99998012   
    106000   0.42108626     0.98636626    -5.0646771     -4.1413548      0.26439198     0.79521626     0.033785941   -0.035826258    0.90798679    -0.033019084   -0.213303       6.0644975      6.0644975      6.0644975      0              0              0              0.98636626   
    107000   0.45085172     1.0063274     -5.1471365     -3.2968052      1.0771683      1.9577626      0.81497909     0.45876322     0.1150982     -0.39565677     0.1315036      6.0241318      6.0241318      6.0241318      0              0              0              1.0063274    
    108000   0.42274097     0.99607394    -5.0627584     -3.3718602      0.95981439     1.3599421      0.77019977     0.74930132    -6.7285801e-05 -0.12550267    -0.20546045     6.0447318      6.0447318      6.0447318      0              0              0              0.99607394   
    109000   0.39123146     1.0054936     -5.1045832     -3.245742       1.1653929      2.197497       0.39823007     0.90045164     0.11273348    -0.64020577     0.15519595     6.0257965      6.0257965      6.0257965      0              0              0              1.0054936    
    110000   0.37268785     1.0011195     -5.1655699     -3.6128563      0.90690236     1.216291       1.1513691      0.35304692     0.43851149     0.077399798   -0.026598753    6.0345596      6.0345596      6.0345596      0              0              0              1.0011195    
    111000   0.35867669     0.99611372    -5.1578361     -3.8054361      0.73990881     0.66039724     0.98088932     0.57843986     0.014533369   -0.38460094    -0.2971828      6.0446513      6.0446513      6.0446513      0              0              0              0.99611372   
    112000   0.39716427     1.0063851     -5.2078737     -3.486871       1.0322172      0.90463724     1.467717       0.72429741     0.1133563      0.26052669     0.062432421    6.0240165      6.0240165      6.0240165      0              0              0              1.0063851    
    113000   0.39683886     1.0145744     -5.1651889     -3.0571834      1.398013       1.3647353      1.9162418      0.91306181     0.78279093    -0.53039206     0.21974771     6.0077648      6.0077648      6.0077648      0              0              0              1.0145744    
    114000   0.3663836      1.004767      -5.1950331     -3.7899943      0.78391126     0.98505646     1.0144034      0.35227395    -0.30499885    -0.11571485    -0.20480127     6.0272486      6.0272486      6.0272486      0              0              0              1.004767     
    115000   0.35557685     1.0131467     -5.2738329     -3.6474971      1.0091285      0.5722379      1.7381662      0.71698144     0.31406117    -0.24237237     0.096562997    6.0105855      6.0105855      6.0105855      0              0              0              1.0131467    
    116000   0.35926684     1.0089564     -5.2711978     -3.6129252      1.0291969      1.4292767      1.2689127      0.38940141     0.62563069    -0.47651556     0.27476152     6.0188948      6.0188948      6.0188948      0              0              0              1.0089564    
    117000   0.36226526     1.0116177     -5.3039096     -3.7077136      0.97070709     1.2047717      1.1179256      0.58942402     0.3450012     -0.0076881258  -0.14781826     6.0136122      6.0136122      6.0136122      0              0              0              1.0116177    
    118000   0.30405163     1.0194147     -5.2838141     -3.369134       1.3538597      1.4875255      2.0315828      0.54247097     0.82648018    -0.47759038     0.26337358     5.9982412      5.9982412      5.9982412      0              0              0              1.0194147    
    119000   0.2720542      1.0081481     -5.3489364     -4.7307001      0.19447675     0.038833248    1.3914625     -0.84686547     0.13129104    -0.62750539     0.49054723     6.020503       6.020503       6.020503       0              0              0              1.0081481    
    120000   0.30091179     1.0244452     -5.357477      -3.3736557      1.4292971      1.2108069      1.5693516      1.5077329     -0.41495375    -0.12296456     0.29107058     5.9884071      5.9884071      5.9884071      0              0              0              1.0244452    
    121000   0.31273568     1.0181584     -5.3290338     -3.985044       0.81196448     0.77816629     1.2303939      0.42733323     0.18409476    -0.071907914    0.32315256     6.0007073      6.0007073      6.0007073      0              0              0              1.0181584    
    122000   0.28946887     1.0144024     -5.3828193     -4.3044263      0.59606354     0.16394921     1.2541338      0.37010761     0.35841855    -0.17533224     0.48880852     6.0081044      6.0081044      6.0081044      0              0              0              1.0144024    
    123000   0.28705647     1.0236011     -5.3942981     -3.9634909      0.93275687     0.89717073     1.0462565      0.8548434     -0.1618549     -0.66286807     0.75364685     5.9900528      5.9900528      5.9900528      0              0              0              1.0236011    
    124000   0.25423035     1.0293974     -5.4086219     -4.0975201      0.87186497     0.54868852     1.8340401      0.23286634     0.28343853     0.093564131    0.27219049     5.9787887      5.9787887      5.9787887      0              0              0              1.0293974    
    125000   0.25925683     1.028092      -5.3835661     -3.9839244      0.94649978     0.45131402     1.2342152      1.1539701      0.3911453     -0.47239577     0.51871806     5.9813181      5.9813181      5.9813181      0              0              0              1.028092     
    126000   0.23825464     1.028328      -5.4356807     -3.907779       1.0959235      0.66804221     1.7736935      0.84603466     0.17435688    -0.081301099    0.40022088     5.9808604      5.9808604      5.9808604      0              0              0              1.028328     
    127000   0.2207064      1.0243415     -5.4549172     -4.446326       0.63247213     0.27138677     1.28557        0.34045964     0.22006045     0.019246594    0.49759318     5.9886091      5.9886091      5.9886091      0              0              0              1.0243415    
    128000   0.22436598     1.0321003     -5.465032      -3.8847017      1.1685853      1.2804254      1.4680886      0.75724196     0.12725149    -0.069059785    0.29555872     5.973565       5.973565       5.973565       0              0              0              1.0321003    
    129000   0.21126954     1.0385754     -5.4678248     -3.7515406      1.3227338      0.97226944     2.1300816      0.86585023     0.22098384     0.044958456    0.078757002    5.9611249      5.9611249      5.9611249      0              0              0              1.0385754    
    130000   0.19962379     1.025329      -5.493547      -4.6485359      0.50993584     0.22663618     0.95607703     0.34709432     0.21920423    -0.28960505     0.51761252     5.9866859      5.9866859      5.9866859      0              0              0              1.025329     
    131000   0.20073775     1.0295932     -5.518422      -4.5322115      0.64266219     0.33601679     0.72651534     0.86545444     0.18223871     0.22124569     0.62541309     5.9784097      5.9784097      5.9784097      0              0              0              1.0295932    
    132000   0.16423056     1.0419286     -5.5381302     -3.9930619      1.2313267      0.85940353     1.7395277      1.095049       0.13330517    -0.29739655     0.7360532      5.9547232      5.9547232      5.9547232      0              0              0              1.0419286    
    133000   0.1603573      1.0319121     -5.5116485     -4.4313879      0.78887556     0.62656348     1.3008816      0.43918161     0.19869547    -0.050753759    0.46048894     5.9739281      5.9739281      5.9739281      0              0              0              1.0319121    
    134000   0.15820372     1.0371004     -5.5627037     -4.215781       1.0472862      0.77691429     1.5575343      0.80741006     0.23725565    -0.22613857     0.33331805     5.9639496      5.9639496      5.9639496      0              0              0              1.0371004    
    135000   0.13118616     1.0412589     -5.5627203     -4.1519938      1.1500526      1.0358911      1.4513753      0.96289131     0.27665956    -0.37089544     0.58506886     5.9559995      5.9559995      5.9559995      0              0              0              1.0412589    
    136000   0.16806146     1.0353787     -5.5975477     -4.5210665      0.77714541     0.48915759     1.1036936      0.73858508     0.18836106    -0.29375092     0.27484974     5.9672534      5.9672534      5.9672534      0              0              0              1.0353787    
    137000   0.13049947     1.0450813     -5.6102239     -4.1289797      1.2222451      0.88317905     1.5375442      1.2460121      0.21836267    -0.36601981     0.62685406     5.9487292      5.9487292      5.9487292      0              0              0              1.0450813    
    138000   0.12829953     1.042363      -5.6065584     -4.146835       1.2017843      1.0691638      1.6932204      0.84296867     0.17168426    -0.015219176    0.57135755     5.9538958      5.9538958      5.9538958      0              0              0              1.042363     
    139000   0.11152611     1.0418528     -5.6364439     -4.756302       0.67596286     0.40548382     1.2572973      0.36510741     0.14514419     0.039513906    0.43051994     5.9548675      5.9548675      5.9548675      0              0              0              1.0418528    
    140000   0.10116752     1.0460244     -5.6446812     -4.2992094      1.1358677      0.78664333     1.5546459      1.0663138      0.23434309     0.0079287669   0.54911131     5.9469409      5.9469409      5.9469409      0              0              0              1.0460244    
Loop time of 16.8008 on 12 procs for 140000 steps with 200 atoms

Performance: 1439930.207 tau/day, 8332.929 timesteps/s
82.6% CPU use with 12 MPI tasks x 1 OpenMP threads

MPI task timing breakdown:
Section |  min time  |  avg time  |  max time  |%varavg| %total
---------------------------------------------------------------
Pair    | 2.985      | 3.5012     | 3.8992     |  15.4 | 20.84
Bond    | 0.064414   | 0.074574   | 0.088285   |   2.6 |  0.44
Neigh   | 0.017882   | 0.018143   | 0.018334   |   0.1 |  0.11
Comm    | 10.469     | 10.826     | 11.337     |   8.1 | 64.43
Output  | 0.016637   | 0.016755   | 0.017822   |   0.2 |  0.10
Modify  | 1.5877     | 1.6348     | 1.6829     |   2.3 |  9.73
Other   |            | 0.7299     |            |       |  4.34

Nlocal:        16.6667 ave          19 max          14 min
Histogram: 1 0 3 0 1 0 3 0 2 2
Nghost:        2268.33 ave        2297 max        2247 min
Histogram: 2 1 1 0 3 1 2 1 0 1
Neighs:        5161.33 ave        6205 max        4044 min
Histogram: 2 0 0 1 3 3 0 0 1 2

Total # of neighbors = 61936
Ave neighs/atom = 309.68
Ave special neighs/atom = 10.14
Neighbor list builds = 93
Dangerous builds = 0
System init for write_data ...
Generated 0 of 1 mixed pair_coeff terms from geometric mixing rule
WARNING: Proc sub-domain size < neighbor skin, could lead to lost atoms (src/domain.cpp:970)
WARNING: Not all mixed pair coeffs generated from mixing. Use write_data with 'pair ij' option to store all pair coeffs. (src/write_data.cpp:309)
Total wall time: 0:00:16
