LAMMPS data file via write_data, version 2 Aug 2023, timestep = 140000, units = lj

200 atoms
2 atom types
224 bonds
2 bond types

97.0315462439254 102.9684537560746 xlo xhi
97.0315462439254 102.9684537560746 ylo yhi
97.0315462439254 102.9684537560746 zlo zhi

Masses

1 1
2 1.5

Pair Coeffs # lj/cut

1 1 1
2 1 1

Bond Coeffs # harmonic

1 100 1.2
2 100 1.2

Atoms # full

42 21 1 0 99.19228546413028 98.34150723245058 98.68284610091325 2 0 -1
95 48 1 0 97.95204914471218 99.26174557104747 99.00236849318783 1 0 0
41 21 1 0 98.50500189636088 98.76342741793556 97.85168965986138 2 0 -1
166 86 2 0 98.46200728941497 97.99842033826006 99.48754300947955 1 0 0
22 11 1 0 98.01982606608807 97.71449025758358 98.46102706713482 -2 2 1
116 58 1 0 97.28695271225004 97.65542216976101 97.67042142402214 1 -1 0
145 73 1 0 99.79136600736285 99.18705743886933 98.90867689252502 1 0 -1
4 2 1 0 100.04597717460011 98.28332527849386 98.0565402110902 0 -1 -1
38 19 1 0 98.85213089573017 97.74150098662597 97.85376748621911 0 -1 0
119 60 1 0 99.43916308711462 98.38162055984266 99.77116798994065 -2 3 0
61 31 1 0 97.42386926764259 98.37187295893123 99.20025651483337 0 -2 1
175 95 2 0 99.60056712617337 99.22855429139936 97.79843482951075 0 1 0
6 3 1 0 99.42762461775284 98.31139455146885 97.18867808465997 -2 -1 0
84 42 1 0 98.63162884554879 102.76057583928483 98.9509110343625 1 0 -1
172 92 2 0 97.49197123914374 97.14831986848455 99.21728722002051 1 0 -2
182 102 2 0 98.82061729212747 99.66199662141322 98.3670843946993 0 0 1
147 74 1 0 98.86941376206133 99.28133185000377 99.50553976940225 1 0 -1
112 56 1 0 97.77211093926836 99.6367421040045 98.04758616219594 0 0 1
3 2 1 0 99.54727449300351 97.27547979724162 98.54175904883509 -1 0 -1
171 91 2 0 97.17012786711102 99.45096364701024 99.70588051157092 0 -1 1
46 23 1 0 97.96337583620178 98.85828189271321 100.1372783087019 1 -1 1
152 76 1 0 99.80219190908518 99.52873444423857 99.92772928349332 -1 0 0
7 4 1 0 97.78159713154159 99.10621494238806 97.09660376878813 0 -1 0
159 80 1 0 99.69054271243137 97.26683696657363 97.38738613959242 -2 3 0
96 48 1 0 97.42233440983694 98.58943994999046 98.05942502809131 2 -1 0
136 68 1 0 102.39834992799841 97.51462808217029 99.65068116458825 -1 2 -1
8 4 1 0 102.65421401162264 99.42976785449527 97.56198322046897 -1 -1 0
146 73 1 0 100.15171175075673 98.05848602585178 99.11198062742169 1 0 -1
21 11 1 0 102.77030673216372 97.80028387923227 98.56952870764854 2 -3 1
177 97 2 0 102.21343968243592 98.31490653901831 97.82870574034605 -1 -2 1
39 20 1 0 101.09621518306217 98.45123633382939 98.8788462844328 0 -3 1
67 34 1 0 100.65302809531346 99.21913399168207 98.3068706489402 0 1 1
68 34 1 0 101.18784147234271 98.19740430824973 97.87596957142532 -1 2 1
128 64 1 0 100.68439568785146 98.88197291011092 99.70147041204872 -1 -1 1
180 100 2 0 101.11332619708982 97.10518818037612 97.40941299699188 -1 1 0
40 20 1 0 100.63885749473717 97.47825007340022 98.45472998402883 0 -3 1
127 64 1 0 101.55001105587704 99.41170714170096 99.02460792643949 -1 -1 1
186 106 2 0 100.57508077591412 97.6931969184446 100.14052570770838 2 1 1
155 78 1 0 101.72202046487652 97.68075798787906 98.6679510815779 -1 1 -1
198 118 2 0 100.6489885106833 98.89848585628293 97.32306649897238 0 0 1
176 96 2 0 102.22460145916742 98.53890980068728 99.09095835100064 -1 -1 -1
197 117 2 0 102.80492923552129 99.28508392236591 98.6205580312074 -2 0 0
92 46 1 0 101.78202980392108 99.15948537679859 100.05087091806507 2 -1 -1
113 57 1 0 101.6498993560143 99.18247034283739 97.97035364601568 -1 0 0
109 55 1 0 100.47782235784305 97.90399651636525 97.18789470758628 1 0 0
90 45 1 0 101.65348778296962 99.97220356391975 97.20715503403865 3 -1 1
36 18 1 0 101.4669596505396 98.13148544415579 99.80719169334819 0 -1 1
16 8 1 0 102.2538156955856 100.03322211323956 99.47576989577176 -1 0 1
114 57 1 0 101.96653225087525 98.94220105961033 102.77264794474706 -1 0 -1
33 17 1 0 102.88933310684648 98.41560248468498 97.05331448107438 -1 0 -1
169 89 2 0 99.29446835141313 97.29105385975878 99.61830003137881 0 0 0
115 58 1 0 97.09290059393385 102.4306388244029 97.60024633280173 0 -1 0
153 77 1 0 100.02716126304239 100.09427288239766 98.23784941340507 -1 1 1
196 116 2 0 99.17343699040102 100.23333194132421 97.57485945779347 1 0 2
37 19 1 0 98.10145248903758 102.93452644478754 97.37904862492256 1 -3 0
72 36 1 0 98.16744990981655 100.08946152221709 97.20885518349033 0 1 0
71 36 1 0 97.15426655139285 100.43641195928377 97.75524259126429 0 1 0
148 74 1 0 98.44848812411857 100.38087762409879 99.07998057530924 1 0 -1
111 56 1 0 98.17881702572507 100.71345065167237 98.10857151626617 3 -3 1
191 111 2 0 98.61736384526621 101.6852034256124 98.59406835247309 -2 -1 2
101 51 1 0 98.05087104863601 102.03858012071382 99.57967955016667 1 1 -1
104 52 1 0 98.08064253357873 101.90985496789776 97.55828978097814 0 1 1
179 99 2 0 97.73917521687441 101.19639618718602 99.00849293949081 0 0 0
102 51 1 0 97.7310424935629 102.30086795055976 98.48973527685405 1 1 -1
83 42 1 0 98.96232099207788 102.47379682270851 97.86174564472135 1 0 -1
99 50 1 0 98.90256322455261 101.26438076658926 97.47638127118456 -1 0 1
170 90 2 0 99.58588500604156 102.03082186610307 98.7752418965921 0 2 0
129 65 1 0 99.51986389227928 100.21329464122155 99.17891117169088 0 1 0
154 77 1 0 99.43876534050186 101.0041860152874 98.39251243201556 -1 1 1
138 69 1 0 99.17940695901932 101.2160920671372 99.42180435737767 0 -1 0
103 52 1 0 97.15862506818812 101.4435601132563 98.03827961340063 0 1 1
160 80 1 0 99.75352636431664 101.99848721256664 97.33589389800129 0 0 0
181 101 2 0 97.64450982635242 102.15838933643008 102.55385645819395 -1 -2 -1
123 62 1 0 102.94708227927698 101.92162001326413 99.28768727956974 0 0 0
19 10 1 0 97.22445884705995 100.64087041207476 99.82558552615318 2 -1 1
89 45 1 0 100.45746231433989 99.961431883643 97.29240617330805 3 -1 1
194 114 2 0 100.62357422762472 99.94528062229281 99.21824917176582 0 1 2
57 29 1 0 102.48020366505799 101.06904970217744 98.81723167551576 0 -2 -1
78 39 1 0 100.34589136679062 101.42594764511375 97.97850165643077 -1 -1 1
144 72 1 0 101.40938424743348 102.63684608729294 98.3339841895448 0 0 -1
15 8 1 0 97.3272646730569 100.2328122007265 98.8037836663103 0 0 1
190 110 2 0 102.22997622620915 100.12822195041038 98.3500512689217 1 -1 0
130 65 1 0 100.42503630901773 100.93616925664655 98.90977304352563 0 1 0
185 105 2 0 102.1959410102065 97.22548872494755 97.67084565557556 1 1 -2
77 39 1 0 101.44342028000867 101.23199759468221 98.3492188630618 -1 -1 1
141 71 1 0 102.10023531945393 100.97821985389689 97.54271883858478 1 2 -1
140 70 1 0 101.47465360522492 100.62031706196404 99.21460633641985 0 1 1
156 78 1 0 102.44705315371374 102.70109126413972 98.79474439975596 -2 1 -1
195 115 2 0 101.11372650951574 102.01765873090626 97.50807844455836 -1 1 1
139 70 1 0 101.0922285252645 100.17517673512444 98.16095717307 0 1 1
143 72 1 0 100.24517697549702 102.53875695712675 98.0776057242958 3 -3 -1
58 29 1 0 102.15020251112227 101.95085287435322 98.00687945112776 -1 -1 -1
49 25 1 0 100.75048700439405 102.01319865496026 98.8627803703505 1 -2 0
157 79 1 0 101.78648348531999 101.92874742611937 99.0717461853816 -1 1 0
59 30 1 0 101.06185739774594 100.8528739063959 97.35246302177026 -2 0 1
158 79 1 0 101.3376476746214 97.08557498469874 99.44490678633021 0 1 0
50 25 1 0 101.14793132846242 101.4444342838197 99.7423905890301 1 -2 0
183 103 2 0 102.2642211919479 101.1827600393418 99.85606545894838 0 0 -2
151 76 1 0 100.37699549858598 100.61700549621351 99.96668023473335 -1 0 0
17 9 1 0 102.75184129797022 101.58541877273458 102.87300881392224 0 -2 0
94 47 1 0 100.23642548878409 102.82111419133228 99.32161786791258 1 -2 0
187 107 2 0 100.12133075484896 101.77435378210542 99.72274534326003 -1 1 -2
44 22 1 0 98.25301386899564 102.9656003285525 99.96234367661627 0 -2 0
5 3 1 0 98.83651450292695 99.3130078765732 102.88341441209094 -2 -1 -1
54 27 1 0 102.93345925151743 97.22444914155201 102.73099096181407 0 1 1
43 22 1 0 97.46425811729736 97.80304900138286 100.07604281415183 -1 0 0
12 6 1 0 98.72618518309133 98.50094269148485 102.24958117681433 -1 -1 -1
162 82 2 0 97.8685429427376 97.24191076749439 100.99207000933694 -2 1 0
11 6 1 0 99.08831737278308 99.64153489963186 101.89356422725275 -1 -1 -1
64 32 1 0 97.50920043385932 99.35126744260691 100.96802889996849 0 0 -1
45 23 1 0 98.63805551259905 97.98894922497301 100.49479751656992 0 0 1
10 5 1 0 97.63809733616922 98.14696881652357 102.05547306104067 -2 0 -1
161 81 2 0 102.95921364524202 99.12318106331038 102.08314973157833 -1 0 -2
9 5 1 0 98.30990715352621 98.65772483579853 101.2214045482366 -2 0 -1
34 17 1 0 98.07118146866513 98.05571162413787 97.11447892569869 1 -1 -1
199 119 2 0 99.46535352923249 98.76434709622988 101.4887633721109 1 1 -2
23 12 1 0 97.28447874155556 98.27458012795974 101.06250401857058 0 -1 0
63 32 1 0 98.05072118889171 99.34740544209384 101.99810363652921 0 0 -1
24 12 1 0 97.05348883592877 97.31059655360184 101.66350361719036 -2 1 0
31 16 1 0 98.72801220026149 97.69370315944713 101.52067823552687 0 -1 -1
32 16 1 0 98.94849047828818 97.38241733591012 102.6217217909351 0 -1 -1
120 60 1 0 99.0250784295238 99.1543637326558 100.57731261182539 -2 3 0
97 49 1 0 98.05385972196828 99.89043757603632 99.96100309322304 1 0 1
80 40 1 0 99.87492177896286 99.19949892494722 102.54106639104297 -1 -1 0
106 53 1 0 99.67072418291684 97.72381482800768 100.6771783439567 1 -1 -1
2 1 1 0 102.50450952003855 100.08424544055413 100.5399696743222 -1 -1 -1
192 112 2 0 99.73110359899587 97.89912254380691 102.21180566437155 0 -1 1
164 84 2 0 97.27082454863113 100.04840302015049 102.58497963608946 -1 3 2
132 66 1 0 100.06404261389433 98.72085879695548 100.53480524495524 0 -1 -1
110 55 1 0 101.61542549721216 97.93242615917168 102.799716628009 1 0 -1
131 66 1 0 100.57422069448837 99.24137926024184 101.49054328979601 0 -1 -1
91 46 1 0 100.74924404234646 99.66101565207296 100.37140963604361 2 -1 -1
75 38 1 0 101.93919016466955 99.72976124091052 102.07169519750019 -1 -1 -1
62 31 1 0 102.6735283473905 98.63156760380095 100.16446993326294 -1 -2 1
79 40 1 0 100.70854106751425 98.44180008505393 102.28051866344994 -1 -1 0
48 24 1 0 100.38537453289393 98.08559089272623 101.32865957643648 0 -1 -1
105 53 1 0 100.64716479558 97.04629060858633 101.12067287235179 1 -1 -1
76 38 1 0 101.79778690999116 100.64217515026813 101.30742899359623 -1 -1 -1
1 1 1 0 102.47005932803674 99.11527826127818 101.17384043483658 1 -3 -1
167 87 2 0 102.44984455679067 98.1592503563504 101.94157686002158 -1 1 1
35 18 1 0 102.05481439740387 98.21882185201753 100.85470934938506 0 -1 1
85 43 1 0 100.94790432422658 99.50714954751264 102.42272586404852 2 -1 0
165 85 2 0 101.62317720284652 98.80358925373343 101.72238228852683 1 -1 1
47 24 1 0 101.41756638062336 97.75131363927348 101.54381235353493 0 -1 -1
88 44 1 0 101.09121013383951 98.58030275375651 100.72027545234731 0 0 1
51 26 1 0 102.60743751329173 97.3759409235726 100.7254590520181 -3 2 0
87 44 1 0 101.54816045468498 99.6315979682073 101.09303728398622 0 0 1
117 59 1 0 101.98402252087686 97.16401853941342 102.2059449069988 2 -1 -2
81 41 1 0 100.63834472609656 97.39553786733005 102.16646278021315 0 -1 0
28 14 1 0 99.08052259589093 102.19310816141264 99.87298012103037 -3 1 0
30 15 1 0 98.29827840283725 101.04203488101089 100.03829501069701 -2 2 -1
93 47 1 0 99.94110992243323 102.6070891979311 100.42293547700118 1 -2 0
100 50 1 0 98.7446682299517 102.27239479760522 102.77842352126099 -1 0 0
56 28 1 0 98.92880377295187 102.93610706495559 100.72479744742762 -1 -1 -2
168 88 2 0 99.59283150871293 97.12926377860592 101.53887860898139 2 -1 -1
98 49 1 0 98.45604922185926 99.80561002627238 101.06642857760508 0 1 1
66 33 1 0 99.76134326092456 99.86242320321756 100.98000617543062 0 1 1
18 9 1 0 97.86152049865797 101.00590246218917 102.87793152739181 1 -2 0
65 33 1 0 99.00039740457008 100.74018480874685 101.37194366799623 0 1 1
55 28 1 0 98.77621208304853 102.42058267608682 101.73951999082428 -1 -1 -2
60 30 1 0 99.8926504612664 100.92950662432773 97.16734291690658 -2 0 1
26 13 1 0 97.63261037683336 100.3980813868491 100.76093857338422 -2 1 -1
27 14 1 0 99.36920563000274 101.9594293114675 101.01933922267962 -1 -1 0
188 108 2 0 98.00541133767634 97.16375661220721 102.23778227258025 -1 0 -1
189 109 2 0 99.05572891992846 100.24317469763066 100.11843643697787 1 3 2
29 15 1 0 98.29693580210866 102.1122332574686 100.61118758799573 -1 1 -1
25 13 1 0 98.09434147686089 100.40041020951446 101.85209059227017 -1 0 -1
14 7 1 0 98.39470644824095 101.44281766746425 102.08654793682724 0 -1 1
137 69 1 0 99.59348431698702 101.07608918884549 100.53517263278096 0 -1 0
73 37 1 0 99.41431660514377 101.62202466109663 102.31695084115013 0 -1 0
70 35 1 0 98.08942148027107 101.24558807835012 101.1141091178764 0 0 0
173 93 2 0 99.00967288063171 100.51944151372928 102.44837310891411 -2 4 -2
135 68 1 0 97.25854855337235 102.65704923055739 100.11530959932514 0 1 -1
52 26 1 0 102.64185313898037 102.1857691935483 100.97127060701787 -2 0 0
53 27 1 0 102.03960562325405 102.36658240795394 102.93010147455524 0 0 1
86 43 1 0 100.04223850223744 100.19173134192678 102.1023816303102 2 -1 0
118 59 1 0 101.10534710725629 102.37321338807536 102.34592469241515 0 0 -2
200 120 2 0 100.742567725932 100.37386486360921 101.19732527518104 0 -1 1
13 7 1 0 97.65446533385935 102.23055093766091 101.48891936383097 1 -2 1
124 62 1 0 97.41146651862849 101.59629162578447 100.31545879227814 1 0 0
69 35 1 0 97.24772140919028 101.2148880468311 101.97251049200463 0 0 0
178 98 2 0 102.31712415963509 100.62736383757694 102.44024901291205 -2 -1 -1
107 54 1 0 101.56906236456561 97.35914541223005 100.54911561440028 0 0 1
142 71 1 0 101.65544752706383 101.48256794871776 102.56083010966267 1 2 -2
74 37 1 0 100.27032529974957 102.12905397501781 101.62474673937089 1 -2 0
150 75 1 0 101.1392511994433 101.47891078502876 101.62051489713717 1 -1 0
126 63 1 0 101.64782511142451 102.43949089958335 101.39873343349159 0 0 0
133 67 1 0 99.97493800251658 101.12156346697128 101.59803512003855 0 0 -1
82 41 1 0 99.77184248639395 102.61903593149023 102.4569828608572 0 -2 0
193 113 2 0 102.84438963872361 100.09295817727579 101.57651214257636 0 -1 1
184 104 2 0 100.5783631487793 101.49409358029999 102.55523878143994 0 -3 0
125 63 1 0 102.66228792575089 102.33789399407613 102.0565232014811 0 0 0
20 10 1 0 102.7365997458222 101.02368974991778 100.92295294943247 1 -1 1
163 83 2 0 102.12857526870825 102.4064631654355 99.96383971000938 -1 1 0
108 54 1 0 100.97901211889042 102.36276543025058 100.2085866828711 0 -1 1
149 75 1 0 101.11991947213794 100.52454996247847 102.24310414664076 1 -1 0
134 67 1 0 100.66380643669434 101.36879908509664 100.67620372025769 0 0 -1
122 61 1 0 101.7192444471056 101.66927714449983 100.62755526809606 1 0 0
174 94 2 0 101.47736484482407 100.48891146125786 100.32225596152215 0 0 0
121 61 1 0 102.20583941728063 101.53654938417327 101.68684877733625 1 0 0

Velocities

42 -0.16728230148433634 0.07584207767809623 0.2619274550681222
95 -0.493042326795826 -0.22256468007132393 -0.2158895737944103
41 0.04769623204420992 0.28456636396065976 -0.06585995085718033
166 -0.5405503636158889 0.23796167502138862 0.453834251651279
22 0.0319123051851917 -0.14136208740688216 0.15774504031589476
116 -0.08065134241762227 0.28934565315833144 0.4992192288903464
145 -0.12063581535947003 -0.20043814638135415 -0.3000976081534971
4 -0.3690033333018729 -0.19276185074915905 -0.6434728196384364
38 0.5014033508354053 -0.3572215468569483 0.35589377471185574
119 0.07011442501486352 -0.4180800282012471 0.031712711929631855
61 -0.18724182388736296 -0.10207512679590741 0.05428950284104161
175 0.22241207351537343 0.06303817600606253 -0.1497040794170323
6 0.23767579707837597 0.1139028347803512 0.06996323521815997
84 0.24069204260255728 0.105179787685636 0.08259204029792398
172 0.45175005912697375 0.12444717737085337 -0.01141444970954722
182 -0.17321828431092615 0.41639872928370114 0.21233725312297014
147 0.16120243545317356 -0.38145739424261993 -0.034793740802647674
112 -0.0027833326496808438 -0.295119663999401 0.9807670524175358
3 0.206931732577174 0.43525448131402555 -0.0010187029308490773
171 -0.21532141510752517 -0.19599465414701242 0.11497871124451695
46 0.23751824945014938 -0.2060211144873973 0.350703223788743
152 0.33552498310891626 -0.11784801273056734 0.7538563726505417
7 -0.024074059235147154 -0.2631976525722935 -0.6089773229316027
159 -0.44299724392171425 -0.41574581647936076 0.022012105586112166
96 0.15546776439791254 -0.15850869190497252 0.05647444615399149
136 0.2682003716706954 0.056291284116967974 0.030486073627803006
8 -0.0015901708647842279 0.8479676574675915 -0.3668634147423337
146 -0.26104654189296933 0.6170413383202268 -0.05051665362043776
21 0.4595421321078301 0.08682876344980762 -0.09548115318132738
177 0.12415894173075666 0.03597670184970448 0.04228532069601605
39 -0.09319489211808632 -0.04673522154500255 -0.23089855977263596
67 0.5617722285599873 -0.3820727182308771 -0.5179058620030927
68 0.2805309948053088 -0.2476905148599867 -0.4311732404106521
128 0.05507341194085812 0.39592476827192197 -0.09518124735234822
180 -0.3000780403307465 0.18837630199812205 -0.09221992354493985
40 0.5899200341213964 -0.07254076687059266 -0.007344185117645259
127 -0.15014384794867602 -0.047481464277890795 -0.2383014633781124
186 0.008510881268875232 -0.2340352318307349 0.4816376990385716
155 0.09105598524350485 0.09831526863847996 -0.00293302301377137
198 -0.2482369385942237 -0.1797156594302553 0.07498118449731365
176 -0.2043762073477556 0.016878408073178357 -0.27178496630588916
197 -0.07648388250755 0.05246435169008007 -0.2815048514750443
92 0.33287895120485317 -0.03405279374081982 0.06952811197872216
113 0.2226457577328786 0.2997041142618606 0.025822899648673934
109 -0.26520860543968694 -0.007659404559403255 -0.07185590195773474
90 -0.3929551283429909 0.09152051737336278 0.10166097170449587
36 0.23888880557718126 0.05725609962815351 -0.11609291731567963
16 -0.10298910935022113 -0.0783487779429404 -0.09021562166500835
114 0.15976482743674095 -0.13446444715704142 0.2430173694923328
33 0.3970331066180691 1.0551815942210987 -0.6437614796852826
169 -0.22432823594363083 0.05949762893778148 -0.0692411286295304
115 -0.05997099373497825 -0.2456574550025857 0.2191096817016239
153 -0.02434034862027364 0.028116897253696177 0.025447803214529864
196 0.16095357426990733 0.17867608086192605 0.2593863195733737
37 0.3505197820562966 -0.5735032710502344 0.07634282463272396
72 0.06632344022946951 -0.7625839023827706 0.10263602692678743
71 -0.172847927840797 0.5791415083493431 0.3085407181988695
148 0.22406479492931644 0.16927442666724712 -0.007861749090963432
111 -0.1553172051649928 0.3415211827638025 0.06766242290606109
191 -0.10595333749878416 -0.021476870778496367 -0.25129393624670515
101 0.7277493056273813 0.2191569505577315 0.46323788331301674
104 0.17365237159647087 -0.5606336483836518 -0.3110516756770135
179 0.1448012244797459 -0.10887191189770554 -0.4246505793104657
102 0.06677768620024255 -0.19058640189150802 0.058410289581132584
83 0.2347321216704401 0.0013177499583415895 0.06553348326513231
99 -0.5454752144461416 -0.1561031575425527 0.2824778875202695
170 0.11599374564641476 0.47803742404334326 -0.3095479577639642
129 0.3649494651017523 -0.16460577619115693 -0.2041644210500605
154 0.12025769683610593 0.13228670886084704 0.7695293269693825
138 0.3747692548848908 -0.0207983215872063 -0.16285666854457226
103 0.29293505346880694 0.22768659975565614 -0.01848224310365924
160 0.2020319872265129 -0.10721380368730785 -0.12808976587916598
181 0.05989969199101224 0.1839390471390212 0.0920476743115138
123 0.17847769914765446 0.04024313251586704 -0.3819585465519491
19 0.569536257523419 0.10769528654492444 0.07941215508988175
89 0.021925869972318428 -0.04053930370897601 0.26562458980842923
194 0.041842143905173386 -0.16772440081673998 0.3027528877859154
57 0.021038616994774762 0.006573820324318764 -0.3371204531929643
78 0.01533384683890616 -0.013738161992378166 -0.5925497742523302
144 -0.16544252509093785 -0.0024019278336224084 -0.17080446570013683
15 -0.04668006260136006 -0.06745667845349955 0.26510640941274716
190 -0.1238391907113313 0.6147703486917339 0.09695215491873921
130 -0.42581415369281495 0.18740900631373647 -0.08166095105722578
185 0.034296134795190746 -0.12067561934484261 -0.13283856417853854
77 0.632967922211999 -0.38021665072675415 0.1500351576661778
141 -0.4546625556186496 0.1345526980888036 -0.032078262404074534
140 -0.2953336724065237 0.18365087702197594 -0.12431406413216965
156 -0.2819425366173541 0.10116243983683132 -0.563322957776352
195 -0.2561398553083881 0.10560277823163698 -0.10307088613509287
139 -0.10543822116625305 -0.30631274094148103 -0.279942844600734
143 0.06779280492863399 -0.10241059279062316 0.1992206045940385
58 -0.20888540764271835 -0.2852693413440946 -0.6508187579349991
49 0.5925816602181909 -0.1213302587200695 0.007293676194078134
157 -0.06790321789005134 -0.1386962515170309 0.6701051083329344
59 -0.5678969021835588 -0.16251682761422603 -0.33972605920231347
158 -0.009720684404987653 -0.36744484229800795 -0.21873865926886707
50 0.5838197582152442 0.09689737351431602 0.30057529213863404
183 0.425848070436432 -0.07886057161009999 -0.23301021730641358
151 -0.07872698250187815 -0.012790458949795774 0.32490574716209575
17 -0.5160616208216263 -0.3454437007073233 -0.24338710406693928
94 0.1367373486878489 -0.004507804607264395 0.24620709482427217
187 0.2927099417458454 0.17411655210203092 0.1550873852998904
44 -0.26100377520040224 -0.2740606858292217 -0.1129508556752578
5 0.14786959496651034 -0.31932967372413956 0.14494417355463238
54 0.3937279536393924 0.310178090198462 -0.29213039440167937
43 -0.14783926496556557 -0.12575472159678933 -0.793742433901664
12 -0.021374276014896873 0.15263407759129238 -0.5099942249453097
162 0.12145697706285154 -0.13293444808543003 0.06055491536027063
11 0.22540023711046628 0.8027606725204302 0.09965063439914372
64 -0.4071742050974859 -0.2771450365400687 -0.03432663936965655
45 -0.7675698649872622 0.5558646011671543 0.10678857309538194
10 -0.39935415048030326 0.015029554138583541 -0.3547723153083609
161 0.07940343790323559 0.2613699011330185 0.26751931760611725
9 -0.3088484032152847 0.2907490609549403 -0.22236786737185793
34 0.13565298063008543 -0.532036363268637 0.07853039258159925
199 -0.6334314274459412 0.11405634678357383 0.22157003256809077
23 0.42620253784193957 -0.7311226467521296 0.3292579807218573
63 -0.1458499444369431 -0.4519723642559405 0.070807444122233
24 -0.29421703427787405 0.01357681467503606 0.2896391828557052
31 -0.3183180738240346 0.13907005620508994 -0.14927462767644412
32 -0.04749747872202309 -0.2817687150044115 -0.562006149030929
120 0.04054058766890597 -0.2836052788754587 0.34812221565466134
97 0.011618492403550805 -0.20307535879272695 -0.16934718101251692
80 0.5251619810014656 0.3039748167712743 -0.32546899544644
106 -0.2691627761610297 0.16835384976942022 0.2002617922348512
2 -0.21363707488983275 -0.6116748944945758 0.21382026183298708
192 -0.08650615894661123 -0.40121353816710126 -0.5894254679882008
164 -0.48102787108485795 0.10225677176189762 0.10666981263069676
132 -0.019909637043630187 -0.27514683663432493 -0.16842058921613332
110 0.2047329376807101 -0.09950584016243798 -0.18911655740122676
131 0.12210348270614496 -0.6474347293887304 -0.028063443561428016
91 -0.3689477559997552 -0.04997718274316931 0.6885697654979147
75 -0.3804196663174246 -0.12816103963831732 0.6269908318233082
62 0.1845966985654045 -0.11131918247203787 -0.18261778138562218
79 0.17380549411411772 0.25634935211296095 -0.37129853561554765
48 -0.07824369311140644 0.18448205882104676 -0.04366558593860639
105 -0.3311025170835326 -0.36153559177538486 -0.118314924398798
76 -0.11517088393483746 -0.19216980625080732 -0.32635832957134536
1 -0.2712511882508085 -0.04738039828815821 -0.030083790959128144
167 0.24614677066542628 0.46919828071733655 0.05474380081161057
35 0.1038555468241267 0.2891083790689666 0.7712878328164149
85 -0.4841064578729497 0.28628267104948835 -0.49450038020126225
165 0.0538798017959814 -0.1212318705872093 -0.05885486966831568
47 0.14319252196199608 -0.1677192396109962 -0.31340048853275987
88 -0.21053191595559137 0.16862065441575813 0.1572932771553677
51 0.30002980525129574 -0.46774113260054734 -0.26625328615261673
87 -0.10311941099091917 -0.7416573211744522 0.14324493752468598
117 -0.015640359847051106 0.1925409362939364 -0.6777051961997547
81 0.15848168190279516 0.39653487475915367 0.068646237655432
28 0.06172313572858257 0.0940957505590275 -0.05897897911624007
30 -0.2541722854503672 0.2166677658186804 0.30878736582686767
93 0.12300752176971004 -0.1218645347758389 0.7099722714621454
100 0.07655113134176464 0.006082971064177302 0.20027931274948713
56 0.18473112835630734 -0.1139385286705499 0.30525937833389427
168 0.1322903102135519 0.012657716881635856 -0.206619940974946
98 -0.3982048674536986 0.5283627727058435 -0.031209251454907043
66 0.34454930144669127 0.18240313631715813 0.15048123873528474
18 -0.21231168006515272 0.26245647033766184 0.6164181244672436
65 -0.16751894732092099 0.684452357026815 0.043258814251557254
55 0.626710495061632 -0.04492816297266208 0.21950490931898392
60 0.5889796067454959 -0.12888649317563963 -0.2532174934327313
26 0.1380074060313578 0.01697009455095611 0.5799769234060791
27 0.007276470441392212 -0.37910023870001613 -0.1933134846457071
188 0.08233950173963715 0.07788923561849716 0.03406805210106478
189 -0.2515754827584321 -0.15490353441496882 0.0850275477133021
29 -0.09879042213169247 0.013654275104185815 -0.3845458829429796
25 6.430719653478124e-05 0.4828004014559519 -0.15176072057760903
14 -0.034645686892720996 0.16321281721858438 0.23114681365251918
137 -0.5925442685804324 0.2050027778858639 -0.16504786499072832
73 -0.12386273471527222 -0.6931095553600524 -0.22996060645835784
70 -0.4965423837164276 0.46811380964020055 -0.1943912413771417
173 0.08701790245558583 0.03422477457749688 -0.05678314601522999
135 -0.24932481437656542 -0.33873089489061414 -0.05662135884287913
52 -0.4333859838428028 0.4753507281415604 -0.5107693877224211
53 -0.016558193751458544 0.45669811955567874 -0.35661403481301385
86 -0.18844464440902556 -0.2968917890552012 -0.19262369201096605
118 -0.21099927296549698 -0.2860230134844988 -0.39117768994691776
200 0.3018475818434937 -0.27740311345608276 0.04655329999985267
13 0.8742869306113749 0.3787128790343361 0.4269096758802062
124 0.13586793312952614 0.2244403517717702 -0.41753343911397867
69 0.11553579524127512 -0.3254066725289665 0.49497342488991464
178 -0.37773547359568693 -0.22837810658230978 -0.17198141263842767
107 0.3332818411504009 0.3062654553352695 0.9551950672460426
142 -0.6147619634163828 0.5119224341810409 0.6092791982329515
74 -0.037355207167031876 -0.05950786398985575 0.3479958194233406
150 0.2840356347628832 -0.18781372750559122 0.5544729673717396
126 -0.031799654020017776 -0.5128054047468572 -0.026982089926865255
133 -0.20533021410420332 0.4646839375516619 -0.47429364303869304
82 -0.159184983211316 0.4302798461346704 0.22756232169230267
193 -0.01851243681211058 0.45350842830890253 -0.028901703310650423
184 -0.0702777877257593 0.21250992760088694 0.13512707988299105
125 0.35000175411123596 -0.5040340368367957 0.5460020918889157
20 -0.4293199295846579 -0.35159708497840486 0.14883725080148258
163 0.4259434580688056 -0.3153223866721417 0.11322063192635201
108 0.028542803584935803 -0.08424665488714189 -0.37211855890381673
149 -0.012338362093698325 0.04353755460187666 0.1320541271227843
134 -0.18193799886042267 0.0361384292544179 -0.08703411971764338
122 0.0773101983989807 0.22559162469042612 0.3057297082110315
174 0.04031130278281285 0.177282952074336 -0.15881079587469055
121 0.017736108858785092 -0.5640193430899562 -0.2996148445167565

Bonds

1 1 95 96
2 1 41 42
3 2 166 22
4 2 166 42
5 2 166 43
6 2 166 46
7 1 145 146
8 1 119 120
9 1 61 62
10 2 175 6
11 2 175 41
12 2 175 67
13 2 175 89
14 2 172 84
15 2 172 136
16 2 182 129
17 2 182 145
18 2 182 147
19 2 182 95
20 1 147 148
21 1 3 4
22 2 171 2
23 2 171 15
24 2 171 19
25 2 171 61
26 1 7 8
27 1 159 160
28 1 21 22
29 2 177 96
30 2 177 110
31 2 177 114
32 2 177 116
33 1 39 40
34 1 67 68
35 2 180 40
36 2 180 53
37 2 180 68
38 2 180 118
39 1 127 128
40 2 186 94
41 2 186 105
42 2 186 146
43 2 186 158
44 1 155 156
45 2 176 36
46 2 176 39
47 2 176 62
48 2 176 92
49 1 113 114
50 1 109 110
51 1 33 34
52 2 169 56
53 2 169 93
54 2 169 106
55 2 169 119
56 1 115 116
57 1 153 154
58 2 196 154
59 2 196 5
60 1 37 38
61 1 71 72
62 1 111 112
63 2 191 99
64 2 191 101
65 2 191 104
66 2 191 111
67 1 101 102
68 2 179 30
69 2 179 57
70 2 179 102
71 2 179 103
72 1 83 84
73 1 99 100
74 2 170 28
75 2 170 49
76 2 170 78
77 2 170 83
78 1 129 130
79 1 103 104
80 2 181 18
81 2 181 54
82 2 181 115
83 2 181 37
84 1 123 124
85 1 19 20
86 1 89 90
87 2 194 91
88 2 194 128
89 2 194 152
90 2 194 153
91 1 57 58
92 1 15 16
93 2 190 113
94 2 190 127
95 2 190 139
96 2 190 141
97 2 185 144
98 2 185 21
99 2 185 58
100 2 185 155
101 1 77 78
102 1 141 142
103 2 195 59
104 2 195 77
105 2 195 142
106 2 195 143
107 1 139 140
108 1 143 144
109 1 49 50
110 1 157 158
111 1 59 60
112 2 183 16
113 2 183 20
114 2 183 124
115 2 183 157
116 1 151 152
117 1 17 18
118 2 187 108
119 2 187 130
120 2 187 137
121 2 187 151
122 1 5 6
123 1 43 44
124 2 162 29
125 2 162 45
126 2 162 51
127 2 162 135
128 1 11 12
129 1 45 46
130 2 161 7
131 2 161 10
132 2 161 64
133 2 161 75
134 1 9 10
135 2 199 9
136 2 199 48
137 2 199 66
138 2 199 80
139 1 23 24
140 1 63 64
141 1 31 32
142 1 97 98
143 2 192 159
144 2 192 31
145 2 192 82
146 2 192 109
147 2 164 8
148 2 164 25
149 2 164 63
150 2 164 71
151 1 131 132
152 1 91 92
153 1 75 76
154 1 79 80
155 1 105 106
156 1 1 2
157 2 167 1
158 2 167 23
159 2 167 33
160 2 167 47
161 1 35 36
162 1 85 86
163 2 165 35
164 2 165 79
165 2 165 85
166 2 165 88
167 1 47 48
168 1 51 52
169 1 87 88
170 1 117 118
171 1 81 82
172 1 93 94
173 2 168 27
174 2 168 32
175 2 168 74
176 2 168 81
177 1 65 66
178 1 55 56
179 1 27 28
180 2 188 13
181 2 188 34
182 2 188 24
183 2 188 55