ITEM: TIMESTEP
0
ITEM: NUMBER OF ATOMS
200
ITEM: BOX BOUNDS pp pp pp
9.7032920903696379e+01 1.0296707909630362e+02
9.7032920903696379e+01 1.0296707909630362e+02
9.7032920903696379e+01 1.0296707909630362e+02
ITEM: ATOMS id mol type x y z
1 1 1 97.6275 98.3695 99.7798
2 1 1 97.5697 99.3484 99.1528
3 2 1 102.919 100.278 99.2709
4 2 1 97.5469 100.086 98.2363
5 3 1 98.6832 100.404 97.8135
6 3 1 99.1242 99.5216 97.0482
7 4 1 98.6866 99.1484 101.237
8 4 1 97.7319 98.7517 101.854
9 5 1 100.534 99.0677 101.967
10 5 1 99.4255 99.4886 101.893
11 6 1 99.9187 102.806 97.2931
12 6 1 100.351 97.7624 102.57
13 7 1 101.996 97.1276 102.712
14 7 1 97.0688 102.397 102.912
15 8 1 101.699 99.8702 100.447
16 8 1 102.089 100.746 101.08
17 9 1 101.631 101.156 97.862
18 9 1 101.857 102.127 97.2666
19 10 1 97.393 99.6739 100.158
20 10 1 97.3857 100.622 100.842
21 11 1 97.0336 97.5736 98.3681
22 11 1 97.8168 98.1536 97.6459
23 12 1 98.694 98.2445 101.915
24 12 1 97.7006 97.9282 102.52
25 13 1 99.3142 100.4 102.344
26 13 1 99.6282 101.54 102.127
27 14 1 100.92 102.462 101.297
28 14 1 100.086 101.824 100.699
29 15 1 97.9776 101.778 99.1845
30 15 1 98.593 101.469 98.2232
31 16 1 101.411 102.283 102.277
32 16 1 100.615 101.553 101.79
33 17 1 97.1253 98.0074 101.437
34 17 1 102.453 98.2027 102.442
35 18 1 100.269 97.4473 101.579
36 18 1 101.144 97.4815 100.773
37 19 1 97.3078 102.657 98.9436
38 19 1 98.0727 97.4812 99.3431
39 20 1 101.069 98.2562 99.2479
40 20 1 101.057 97.266 98.5782
41 21 1 98.8245 98.637 97.7997
42 21 1 98.636 97.6923 97.107
43 22 1 98.4261 97.6437 98.3555
44 22 1 98.7721 102.705 97.5964
45 23 1 98.7222 102.644 99.6384
46 23 1 98.3815 102.514 98.5503
47 24 1 97.045 98.7098 100.584
48 24 1 102.607 99.7893 100.97
49 25 1 100.62 101.568 99.7186
50 25 1 101.409 100.758 99.9759
51 26 1 97.3213 97.6186 100.467
52 26 1 102.504 102.656 99.9516
53 27 1 100.561 97.6114 97.715
54 27 1 101.774 97.3378 97.8279
55 28 1 98.0768 97.3998 101.567
56 28 1 98.3978 97.4341 100.394
57 29 1 97.5601 101.964 98.1722
58 29 1 102.359 101.605 98.5629
59 30 1 99.1686 101.213 97.2107
60 30 1 99.1313 102.275 102.639
61 31 1 102.891 98.5081 98.9174
62 31 1 102.03 98.3464 99.7508
63 32 1 97.2695 99.5861 102.301
64 32 1 97.6704 100.588 101.882
65 33 1 102.205 99.2179 102.671
66 33 1 102.597 98.9403 101.62
67 34 1 99.429 97.6556 97.8914
68 34 1 100.133 102.762 98.3915
69 35 1 99.0856 101.667 101.171
70 35 1 98.3893 101.757 100.165
71 36 1 98.3447 100.697 102.73
72 36 1 98.2232 101.848 97.2106
73 37 1 98.7274 102.508 101.701
74 37 1 99.241 97.483 101.207
75 38 1 98.0551 101.337 101.173
76 38 1 97.56 102.217 101.789
77 39 1 99.49 102.073 97.9175
78 39 1 100.267 101.768 98.7549
79 40 1 102.004 97.9067 101.447
80 40 1 101.481 98.6274 102.183
81 41 1 99.3723 97.3449 102.296
82 41 1 100.377 102.609 102.294
83 42 1 99.2388 97.2444 98.8862
84 42 1 99.2066 101.983 98.9515
85 43 1 99.8928 98.9911 100.976
86 43 1 100.335 99.6112 100.088
87 44 1 100.889 99.354 100.896
88 44 1 101.905 98.8567 100.75
89 45 1 100.678 98.6555 102.949
90 45 1 100.126 99.7169 102.675
91 46 1 101.625 99.0812 98.7053
92 46 1 101.954 97.9216 98.7137
93 47 1 99.4241 97.4892 99.9665
94 47 1 100.172 102.895 100.655
95 48 1 98.4779 99.4475 98.3493
96 48 1 97.4346 99.0131 98.0794
97 49 1 99.1052 100.252 98.7385
98 49 1 98.0179 100.286 99.1697
99 50 1 102.407 100.256 101.961
100 50 1 97.0486 100.463 102.912
101 51 1 102.229 101.233 102.512
102 51 1 97.4493 101.422 102.522
103 52 1 97.9647 99.7755 97.2616
104 52 1 102.743 99.6299 97.5337
105 53 1 100.111 98.0137 100.644
106 53 1 99.7263 98.3389 101.74
107 54 1 102.16 101.81 100.666
108 54 1 101.057 101.526 100.694
109 55 1 101.044 102.842 97.1439
110 55 1 101.493 98.0023 97.0708
111 56 1 102.49 100.555 98.1018
112 56 1 102.572 99.4779 98.5809
113 57 1 101.705 99.3377 97.669
114 57 1 101.123 98.4024 98.0519
115 58 1 102.86 97.5961 97.2731
116 58 1 97.2217 98.773 97.0452
117 59 1 99.4985 99.5252 98.0844
118 59 1 99.9728 98.5396 97.8177
119 60 1 98.2533 99.1033 100.299
120 60 1 97.7019 99.6723 101.228
121 61 1 101.195 101.385 102.757
122 61 1 101.672 101.529 101.614
123 62 1 98.1078 102.472 100.893
124 62 1 97.2844 101.7 100.548
125 63 1 97.3937 101.081 98.6408
126 63 1 102.71 101.443 97.5468
127 64 1 100.493 98.998 98.7524
128 64 1 101.235 99.2234 99.6932
129 65 1 99.8067 99.6169 99.1974
130 65 1 100.047 100.817 99.1787
131 66 1 99.339 99.2008 100.097
132 66 1 98.7292 98.2676 99.6851
133 67 1 98.9347 100.915 100.498
134 67 1 99.8376 100.9 101.301
135 68 1 102.869 101.787 99.4335
136 68 1 97.6665 100.99 99.8678
137 69 1 99.5497 101.466 99.8477
138 69 1 99.3954 100.291 99.8312
139 70 1 101.204 99.5425 102.662
140 70 1 101.328 100.582 102.129
141 71 1 99.7743 100.386 97.4334
142 71 1 100.565 101.114 98.0012
143 72 1 100.993 102.118 97.9932
144 72 1 101.03 102.373 99.1497
145 73 1 100.09 98.5279 99.6857
146 73 1 101.051 98.4149 100.271
147 74 1 98.1096 98.5424 98.8005
148 74 1 98.6453 99.4567 99.3832
149 75 1 100.263 100.832 102.53
150 75 1 100.394 100.047 101.682
151 76 1 100.808 100.133 99.3404
152 76 1 101.399 100.139 98.2429
153 77 1 101.164 101.061 98.8776
154 77 1 100.366 100.18 98.4096
155 78 1 102.8 97.6095 99.4594
156 78 1 102.228 97.5941 100.469
157 79 1 101.781 101.754 99.6007
158 79 1 101.033 102.451 100.197
159 80 1 101.884 102.775 101.237
160 80 1 102.432 102.199 102.089
161 81 2 98.7147 100.359 101.429
162 82 2 97.6237 102.565 99.9615
163 83 2 102.923 102.718 101.046
164 84 2 98.3929 99.6541 102.195
165 85 2 100.92 98.3806 101.294
166 86 2 97.7363 102.907 97.6056
167 87 2 98.0947 98.2628 100.913
168 88 2 99.7619 102.391 101.527
169 89 2 99.106 98.3629 100.678
170 90 2 99.9071 102.495 99.6511
171 91 2 102.401 99.3032 99.6401
172 92 2 98.7487 101.044 99.3894
173 93 2 98.0917 102.889 102.564
174 94 2 101.037 100.578 101.098
175 95 2 99.492 98.3414 102.802
176 96 2 101.579 97.2455 99.6725
177 97 2 102.341 98.4416 97.8378
178 98 2 100.916 100.312 97.3617
179 99 2 97.7628 100.919 97.6227
180 100 2 100.128 97.9307 98.8044
181 101 2 102.661 102.563 97.9603
182 102 2 99.3171 98.6533 98.7756
183 103 2 102.523 100.887 100.009
184 104 2 102.894 101.32 101.534
185 105 2 102.089 102.768 98.8237
186 106 2 100.532 97.478 99.6807
187 107 2 100.3 100.685 100.313
188 108 2 102.911 97.1712 102.05
189 109 2 98.2828 100.15 100.27
190 110 2 100.496 99.4378 97.6773
191 111 2 101.92 100.285 97.0984
192 112 2 101.233 97.4875 101.983
193 113 2 98.4671 101.548 102.166
194 114 2 101.882 100.143 99.2743
195 115 2 100.26 101.805 97.0674
196 116 2 99.5795 101.056 98.2527
197 117 2 99.1844 102.53 100.57
198 118 2 98.3264 98.7649 102.795
199 119 2 101.585 99.6307 101.618
200 120 2 99.5254 99.9837 100.887
ITEM: TIMESTEP
1000
ITEM: NUMBER OF ATOMS
200
ITEM: BOX BOUNDS pp pp pp
9.7003101263026579e+01 1.0299689873697342e+02
9.7032920903696379e+01 1.0296707909630362e+02
9.7032920903696379e+01 1.0296707909630362e+02
ITEM: ATOMS id mol type x y z
1 1 1 97.5638 98.3351 99.7189
2 1 1 97.5592 99.3703 99.1542
3 2 1 102.904 100.27 99.2814
4 2 1 97.4845 100.031 98.2299
5 3 1 98.7657 100.422 97.7327
6 3 1 99.0983 99.4407 97.1543
7 4 1 98.6514 99.2094 101.207
8 4 1 97.6623 98.7581 101.756
9 5 1 100.546 99.1001 101.933
10 5 1 99.4096 99.4009 101.913
11 6 1 99.833 102.841 97.2897
12 6 1 100.317 97.7778 102.566
13 7 1 102.067 97.1588 102.633
14 7 1 97.0412 102.406 102.932
15 8 1 101.636 99.876 100.408
16 8 1 102.098 100.733 101.07
17 9 1 101.69 101.139 97.803
18 9 1 101.963 102.157 97.191
19 10 1 97.319 99.6963 100.131
20 10 1 97.2328 100.602 100.88
21 11 1 96.9969 97.5989 98.3548
22 11 1 97.8286 98.1513 97.6658
23 12 1 98.6839 98.2848 101.817
24 12 1 97.723 97.9568 102.466
25 13 1 99.3239 100.36 102.423
26 13 1 99.5769 101.528 102.143
27 14 1 100.881 102.463 101.335
28 14 1 100.055 101.838 100.698
29 15 1 97.9686 101.683 99.179
30 15 1 98.5998 101.401 98.2247
31 16 1 101.411 102.31 102.205
32 16 1 100.598 101.577 101.842
33 17 1 97.0471 97.88 101.376
34 17 1 102.466 98.1466 102.361
35 18 1 100.247 97.4146 101.571
36 18 1 101.15 97.4446 100.791
37 19 1 97.2998 102.625 98.9434
38 19 1 98.0464 97.4489 99.3332
39 20 1 101.08 98.2819 99.1958
40 20 1 101.101 97.3368 98.546
41 21 1 98.8414 98.576 97.8075
42 21 1 98.6222 97.7057 97.098
43 22 1 98.4893 97.6188 98.3324
44 22 1 98.7582 102.716 97.5462
45 23 1 98.7772 102.552 99.6119
46 23 1 98.4224 102.444 98.5314
47 24 1 96.9209 98.677 100.482
48 24 1 102.603 99.7747 100.933
49 25 1 100.635 101.641 99.7557
50 25 1 101.372 100.834 100.025
51 26 1 97.2932 97.586 100.414
52 26 1 102.518 102.638 99.9081
53 27 1 100.588 97.676 97.6845
54 27 1 101.818 97.3918 97.8027
55 28 1 98.0493 97.4115 101.514
56 28 1 98.4195 97.3716 100.362
57 29 1 97.5331 101.913 98.1069
58 29 1 102.338 101.699 98.5025
59 30 1 99.2604 101.259 97.1949
60 30 1 99.1498 102.332 102.575
61 31 1 102.868 98.5005 98.8886
62 31 1 102.078 98.3719 99.72
63 32 1 97.243 99.5823 102.358
64 32 1 97.6754 100.586 101.909
65 33 1 102.245 99.2382 102.575
66 33 1 102.586 98.8785 101.484
67 34 1 99.4129 97.6762 97.8266
68 34 1 100.164 102.789 98.3071
69 35 1 99.0873 101.653 101.203
70 35 1 98.4285 101.761 100.16
71 36 1 98.3736 100.703 102.732
72 36 1 98.2576 101.823 97.2781
73 37 1 98.6889 102.53 101.707
74 37 1 99.2001 97.4801 101.182
75 38 1 98.0576 101.274 101.161
76 38 1 97.5059 102.147 101.759
77 39 1 99.4486 102.077 97.952
78 39 1 100.274 101.772 98.7615
79 40 1 101.948 97.9563 101.369
80 40 1 101.467 98.6218 102.16
81 41 1 99.3753 97.3621 102.302
82 41 1 100.4 102.614 102.318
83 42 1 99.3212 97.1929 98.827
84 42 1 99.2433 101.885 98.94
85 43 1 99.8738 98.9741 101.001
86 43 1 100.29 99.5804 100.104
87 44 1 100.82 99.4296 100.948
88 44 1 101.836 98.8751 100.739
89 45 1 100.683 98.646 102.976
90 45 1 100.115 99.6721 102.712
91 46 1 101.659 99.1501 98.7292
92 46 1 101.971 97.9768 98.6976
93 47 1 99.3883 97.534 99.9018
94 47 1 100.157 102.902 100.634
95 48 1 98.4688 99.5198 98.2794
96 48 1 97.4129 98.9893 98.0933
97 49 1 99.1326 100.315 98.7546
98 49 1 98.0034 100.321 99.0889
99 50 1 102.45 100.303 101.982
100 50 1 97.0004 100.467 102.963
101 51 1 102.245 101.261 102.571
102 51 1 97.4354 101.431 102.598
103 52 1 97.9886 99.7234 97.296
104 52 1 102.809 99.5518 97.499
105 53 1 100.085 98.0089 100.602
106 53 1 99.7564 98.3036 101.755
107 54 1 102.195 101.808 100.722
108 54 1 101.035 101.545 100.798
109 55 1 101.089 102.862 97.1618
110 55 1 101.532 98.0392 97.0881
111 56 1 102.527 100.552 98.1105
112 56 1 102.603 99.4688 98.5378
113 57 1 101.746 99.3025 97.5991
114 57 1 101.201 98.4181 98.0743
115 58 1 102.919 97.5582 97.2104
116 58 1 97.2365 98.7251 97.0025
117 59 1 99.5104 99.5473 98.1284
118 59 1 100.003 98.5612 97.8837
119 60 1 98.198 99.0783 100.226
120 60 1 97.7308 99.696 101.215
121 61 1 101.204 101.47 102.827
122 61 1 101.685 101.49 101.653
123 62 1 98.1054 102.433 100.893
124 62 1 97.255 101.674 100.611
125 63 1 97.3051 101.048 98.6124
126 63 1 102.769 101.488 97.5438
127 64 1 100.556 99.0562 98.7768
128 64 1 101.271 99.2167 99.7182
129 65 1 99.7996 99.6351 99.1873
130 65 1 99.9932 100.846 99.2213
131 66 1 99.2786 99.18 100.132
132 66 1 98.6675 98.2787 99.6448
133 67 1 98.9176 100.904 100.552
134 67 1 99.8915 100.972 101.284
135 68 1 102.899 101.731 99.4253
136 68 1 97.6163 100.919 99.9168
137 69 1 99.5164 101.451 99.912
138 69 1 99.447 100.277 99.8957
139 70 1 101.212 99.5102 102.637
140 70 1 101.321 100.624 102.178
141 71 1 99.8232 100.341 97.5011
142 71 1 100.617 101.162 97.9426
143 72 1 101.134 102.147 97.9676
144 72 1 101.015 102.422 99.1346
145 73 1 100.082 98.553 99.6673
146 73 1 101.076 98.3282 100.249
147 74 1 98.106 98.5113 98.7584
148 74 1 98.6592 99.4444 99.2901
149 75 1 100.263 100.898 102.608
150 75 1 100.346 100.091 101.776
151 76 1 100.818 100.115 99.3628
152 76 1 101.427 100.097 98.3022
153 77 1 101.194 101.003 98.8519
154 77 1 100.348 100.221 98.4085
155 78 1 102.821 97.5966 99.4503
156 78 1 102.219 97.5913 100.472
157 79 1 101.822 101.808 99.5264
158 79 1 101.082 102.452 100.223
159 80 1 101.935 102.794 101.328
160 80 1 102.467 102.189 102.087
161 81 2 98.7795 100.422 101.525
162 82 2 97.6127 102.521 99.9484
163 83 2 102.937 102.714 101.045
164 84 2 98.3862 99.6442 102.183
165 85 2 100.852 98.3775 101.281
166 86 2 97.7287 102.919 97.6836
167 87 2 97.9881 98.2595 100.834
168 88 2 99.7263 102.424 101.547
169 89 2 99.0241 98.3467 100.708
170 90 2 99.9235 102.509 99.6691
171 91 2 102.391 99.3423 99.6319
172 92 2 98.7047 100.966 99.4719
173 93 2 98.0413 102.821 102.616
174 94 2 101.062 100.576 101.129
175 95 2 99.4913 98.3969 102.777
176 96 2 101.584 97.315 99.6364
177 97 2 102.404 98.3961 97.8062
178 98 2 100.93 100.342 97.3622
179 99 2 97.775 100.88 97.6659
180 100 2 100.108 97.9423 98.7771
181 101 2 102.679 102.598 97.9631
182 102 2 99.2582 98.6814 98.7678
183 103 2 102.476 100.912 100.004
184 104 2 102.858 101.235 101.616
185 105 2 102.132 102.789 98.8627
186 106 2 100.542 97.4335 99.6475
187 107 2 100.347 100.699 100.324
188 108 2 103.034 97.1147 102.089
189 109 2 98.3153 100.14 100.245
190 110 2 100.549 99.4366 97.7332
191 111 2 101.93 100.238 97.1348
192 112 2 101.229 97.5046 102.039
193 113 2 98.408 101.591 102.156
194 114 2 101.857 100.173 99.3686
195 115 2 100.26 101.882 97.1476
196 116 2 99.597 101.095 98.2237
197 117 2 99.1574 102.514 100.627
198 118 2 98.3382 98.7634 102.775
199 119 2 101.606 99.6577 101.655
200 120 2 99.5259 99.9907 100.923
ITEM: TIMESTEP
2000
ITEM: NUMBER OF ATOMS
200
ITEM: BOX BOUNDS pp pp pp
9.6972981929985664e+01 1.0302701807001434e+02
9.7032920903696379e+01 1.0296707909630362e+02
9.7032920903696379e+01 1.0296707909630362e+02
ITEM: ATOMS id mol type x y z
1 1 1 97.5674 98.3769 99.7738
2 1 1 97.5054 99.3877 99.1672
3 2 1 102.978 100.243 99.2753
4 2 1 97.4246 100.055 98.2478
5 3 1 98.6432 100.424 97.7962
6 3 1 99.0039 99.5222 97.0968
7 4 1 98.7059 99.1739 101.243
8 4 1 97.7206 98.7202 101.784
9 5 1 100.528 98.9788 101.967
10 5 1 99.4266 99.4529 101.927
11 6 1 99.8372 102.839 97.2402
12 6 1 100.326 97.7727 102.559
13 7 1 102.113 97.1662 102.794
14 7 1 97.0162 102.366 102.966
15 8 1 101.68 99.8504 100.436
16 8 1 102.087 100.727 101.067
17 9 1 101.686 101.146 97.8152
18 9 1 101.976 102.113 97.2206
19 10 1 97.3724 99.7238 100.164
20 10 1 97.3002 100.583 100.875
21 11 1 97.0691 97.6174 98.394
22 11 1 97.8121 98.2172 97.6517
23 12 1 98.6758 98.1769 101.849
24 12 1 97.7004 97.9456 102.497
25 13 1 99.2421 100.41 102.429
26 13 1 99.519 101.529 102.128
27 14 1 100.915 102.445 101.248
28 14 1 100.071 101.807 100.674
29 15 1 97.9303 101.759 99.1408
30 15 1 98.5406 101.469 98.228
31 16 1 101.439 102.301 102.218
32 16 1 100.564 101.59 101.818
33 17 1 97.0672 97.9205 101.368
34 17 1 102.488 98.1884 102.376
35 18 1 100.316 97.4324 101.539
36 18 1 101.174 97.4299 100.773
37 19 1 97.218 102.615 98.9747
38 19 1 98.0352 97.4734 99.3313
39 20 1 101.18 98.2532 99.2205
40 20 1 101.071 97.2231 98.7105
41 21 1 98.7966 98.6645 97.8214
42 21 1 98.6228 97.703 97.1024
43 22 1 98.4576 97.7169 98.3292
44 22 1 98.7468 102.756 97.6637
45 23 1 98.8066 102.601 99.6144
46 23 1 98.2593 102.612 98.5961
47 24 1 96.9347 98.7368 100.582
48 24 1 102.624 99.8056 100.986
49 25 1 100.636 101.541 99.6978
50 25 1 101.461 100.774 100.004
51 26 1 97.3196 97.5804 100.398
52 26 1 102.655 102.551 99.9837
53 27 1 100.55 97.6566 97.6834
54 27 1 101.691 97.3558 97.9136
55 28 1 98.0063 97.4046 101.526
56 28 1 98.4354 97.4023 100.385
57 29 1 97.4639 102.002 98.1274
58 29 1 102.334 101.724 98.4759
59 30 1 99.1372 101.205 97.1946
60 30 1 99.0627 102.276 102.713
61 31 1 102.941 98.5475 98.9299
62 31 1 102.123 98.3502 99.8046
63 32 1 97.1612 99.563 102.235
64 32 1 97.6543 100.58 101.883
65 33 1 102.235 99.3237 102.579
66 33 1 102.668 98.926 101.556
67 34 1 99.425 97.7263 97.7994
68 34 1 100.156 102.781 98.2517
69 35 1 99.0382 101.654 101.2
70 35 1 98.4231 101.711 100.167
71 36 1 98.2152 100.671 102.799
72 36 1 98.17 101.852 97.2604
73 37 1 98.7233 102.483 101.75
74 37 1 99.2342 97.4602 101.162
75 38 1 98.0349 101.324 101.196
76 38 1 97.5317 102.211 101.856
77 39 1 99.4339 102.023 97.8846
78 39 1 100.218 101.788 98.7286
79 40 1 102.08 97.9693 101.419
80 40 1 101.442 98.6094 102.203
81 41 1 99.3458 97.3174 102.266
82 41 1 100.392 102.646 102.305
83 42 1 99.2843 97.1329 98.7485
84 42 1 99.1804 101.923 98.9025
85 43 1 99.8983 98.9572 101.008
86 43 1 100.315 99.5893 100.033
87 44 1 100.878 99.3711 100.917
88 44 1 101.928 98.856 100.796
89 45 1 100.687 98.6252 103.035
90 45 1 100.097 99.641 102.772
91 46 1 101.587 99.1064 98.6483
92 46 1 102.064 97.9948 98.7689
93 47 1 99.4173 97.5487 99.8614
94 47 1 100.161 102.878 100.601
95 48 1 98.4187 99.5295 98.3034
96 48 1 97.377 99.0189 98.1173
97 49 1 99.0985 100.265 98.7897
98 49 1 97.9958 100.319 99.0785
99 50 1 102.408 100.309 101.971
100 50 1 96.9541 100.478 102.944
101 51 1 102.205 101.233 102.517
102 51 1 97.3624 101.381 102.561
103 52 1 97.84 99.7542 97.3234
104 52 1 102.754 99.589 97.5786
105 53 1 100.148 98.0051 100.671
106 53 1 99.7068 98.2642 101.736
107 54 1 102.256 101.828 100.856
108 54 1 101.132 101.517 100.701
109 55 1 101.06 102.899 97.1096
110 55 1 101.607 98.0431 97.1007
111 56 1 102.487 100.54 98.1273
112 56 1 102.568 99.4624 98.6187
113 57 1 101.715 99.2414 97.6058
114 57 1 101.207 98.3123 98.0898
115 58 1 103.007 97.6502 97.2701
116 58 1 97.159 98.7938 97.0083
117 59 1 99.4509 99.6177 98.0664
118 59 1 99.9494 98.6104 97.8302
119 60 1 98.209 99.1013 100.249
120 60 1 97.7488 99.6545 101.177
121 61 1 101.148 101.435 102.785
122 61 1 101.62 101.464 101.634
123 62 1 98.1167 102.397 100.91
124 62 1 97.205 101.661 100.566
125 63 1 97.188 101.087 98.6516
126 63 1 102.774 101.411 97.5263
127 64 1 100.517 98.9113 98.7868
128 64 1 101.295 99.2267 99.6975
129 65 1 99.8664 99.662 99.0953
130 65 1 100.037 100.853 99.1768
131 66 1 99.2638 99.2546 100.06
132 66 1 98.674 98.3073 99.6355
133 67 1 98.9692 100.894 100.514
134 67 1 99.8899 100.911 101.346
135 68 1 102.981 101.709 99.4892
136 68 1 97.6035 100.876 99.8874
137 69 1 99.5213 101.479 99.8178
138 69 1 99.4543 100.264 99.8184
139 70 1 101.156 99.5157 102.666
140 70 1 101.309 100.554 102.157
141 71 1 99.8121 100.385 97.4641
142 71 1 100.575 101.169 97.8901
143 72 1 101.011 102.136 97.8842
144 72 1 101.211 102.153 99.022
145 73 1 100.018 98.5286 99.7031
146 73 1 101.09 98.3932 100.24
147 74 1 98.0462 98.5576 98.7495
148 74 1 98.5981 99.4567 99.3155
149 75 1 100.208 100.846 102.527
150 75 1 100.445 99.9913 101.771
151 76 1 100.857 100.122 99.3103
152 76 1 101.448 100.089 98.1978
153 77 1 101.202 101.052 98.8254
154 77 1 100.366 100.248 98.411
155 78 1 102.878 97.6288 99.4886
156 78 1 102.319 97.5279 100.504
157 79 1 101.919 101.747 99.8026
158 79 1 100.994 102.458 100.114
159 80 1 101.943 102.825 101.292
160 80 1 102.463 102.191 102.119
161 81 2 98.7808 100.41 101.448
162 82 2 97.6832 102.503 99.9905
163 83 2 103.059 102.689 101.062
164 84 2 98.3543 99.6767 102.177
165 85 2 100.964 98.3484 101.309
166 86 2 97.7224 102.982 97.6071
167 87 2 98.0567 98.2764 100.865
168 88 2 99.7608 102.399 101.508
169 89 2 99.0917 98.3867 100.67
170 90 2 99.9199 102.459 99.6339
171 91 2 102.445 99.3259 99.6774
172 92 2 98.711 100.97 99.461
173 93 2 98.0178 102.849 102.559
174 94 2 101.013 100.556 101.098
175 95 2 99.495 98.4937 102.792
176 96 2 101.667 97.2799 99.678
177 97 2 102.409 98.4843 97.8636
178 98 2 100.91 100.37 97.3204
179 99 2 97.6809 100.892 97.6945
180 100 2 100.097 97.9134 98.7888
181 101 2 102.704 102.659 97.9368
182 102 2 99.2368 98.724 98.7654
183 103 2 102.569 100.807 100.033
184 104 2 102.934 101.265 101.556
185 105 2 102.219 102.86 98.8742
186 106 2 100.523 97.5445 99.6574
187 107 2 100.316 100.687 100.288
188 108 2 103.007 97.14 102.071
189 109 2 98.3309 100.17 100.225
190 110 2 100.566 99.4692 97.7608
191 111 2 101.9 100.254 97.1188
192 112 2 101.247 97.5295 102.031
193 113 2 98.378 101.529 102.198
194 114 2 101.914 100.15 99.2534
195 115 2 100.162 101.831 97.0233
196 116 2 99.5436 101.091 98.2678
197 117 2 99.1821 102.505 100.578
198 118 2 98.3417 98.7453 102.788
199 119 2 101.603 99.5846 101.632
200 120 2 99.6238 100.011 100.92
ITEM: TIMESTEP
3000
ITEM: NUMBER OF ATOMS
200
ITEM: BOX BOUNDS pp pp pp
9.6942559892615236e+01 1.0305744010738476e+02
9.7032920903696379e+01 1.0296707909630362e+02
9.7032920903696379e+01 1.0296707909630362e+02
ITEM: ATOMS id mol type x y z
1 1 1 97.56 98.3842 99.722
2 1 1 97.4672 99.4209 99.1429
3 2 1 103.015 100.296 99.2288
4 2 1 97.4355 100.047 98.2186
5 3 1 98.7008 100.42 97.7482
6 3 1 99.034 99.4862 97.0631
7 4 1 98.6429 99.1746 101.241
8 4 1 97.6589 98.7425 101.805
9 5 1 100.533 98.962 101.996
10 5 1 99.4249 99.3805 101.931
11 6 1 99.9189 102.831 97.2928
12 6 1 100.414 97.7559 102.555
13 7 1 102.033 97.1812 102.591
14 7 1 96.8252 102.357 102.883
15 8 1 101.754 99.8488 100.451
16 8 1 102.152 100.709 101.094
17 9 1 101.687 101.164 97.8191
18 9 1 101.864 102.215 97.3044
19 10 1 97.2753 99.786 100.19
20 10 1 97.2103 100.651 100.915
21 11 1 97.0565 97.5862 98.4012
22 11 1 97.786 98.1289 97.5995
23 12 1 98.6067 98.143 101.93
24 12 1 97.6257 97.9092 102.487
25 13 1 99.3179 100.353 102.412
26 13 1 99.5168 101.502 102.159
27 14 1 100.907 102.507 101.276
28 14 1 100.097 101.804 100.683
29 15 1 97.9571 101.725 99.2266
30 15 1 98.5199 101.37 98.2928
31 16 1 101.412 102.307 102.24
32 16 1 100.59 101.562 101.792
33 17 1 97.0235 97.907 101.419
34 17 1 102.522 98.1492 102.393
35 18 1 100.262 97.4803 101.547
36 18 1 101.084 97.4969 100.691
37 19 1 97.1877 102.606 99.0109
38 19 1 98.0292 97.4391 99.3557
39 20 1 101.097 98.2446 99.1442
40 20 1 100.994 97.2083 98.6776
41 21 1 98.7698 98.6016 97.7354
42 21 1 98.5575 97.6432 97.0228
43 22 1 98.3525 97.6477 98.3387
44 22 1 98.732 102.768 97.6227
45 23 1 98.6659 102.53 99.6629
46 23 1 98.284 102.534 98.55
47 24 1 96.9687 98.7522 100.534
48 24 1 102.648 99.7662 101.047
49 25 1 100.719 101.604 99.7352
50 25 1 101.533 100.784 100.053
51 26 1 97.2775 97.6299 100.427
52 26 1 102.599 102.704 99.9174
53 27 1 100.57 97.651 97.7886
54 27 1 101.753 97.2752 97.9065
55 28 1 97.9631 97.3884 101.514
56 28 1 98.4312 97.4075 100.403
57 29 1 97.4992 101.982 98.1299
58 29 1 102.468 101.695 98.58
59 30 1 99.1952 101.248 97.2128
60 30 1 99.0801 102.304 102.664
61 31 1 102.943 98.5531 98.8774
62 31 1 102.043 98.3491 99.746
63 32 1 97.1466 99.6028 102.361
64 32 1 97.6551 100.587 101.956
65 33 1 102.271 99.1977 102.62
66 33 1 102.696 98.8551 101.547
67 34 1 99.3833 97.6706 97.832
68 34 1 100.055 102.75 98.3537
69 35 1 99.0642 101.671 101.239
70 35 1 98.3768 101.728 100.235
71 36 1 98.366 100.742 102.71
72 36 1 98.2685 101.801 97.3264
73 37 1 98.7314 102.555 101.709
74 37 1 99.2495 97.4892 101.159
75 38 1 98.0591 101.3 101.139
76 38 1 97.3139 102.069 101.678
77 39 1 99.4423 102.059 97.8824
78 39 1 100.312 101.808 98.7102
79 40 1 102.073 97.9488 101.419
80 40 1 101.459 98.4883 102.21
81 41 1 99.4034 97.3697 102.251
82 41 1 100.403 102.654 102.28
83 42 1 99.1632 97.1283 98.8724
84 42 1 99.2219 101.877 98.9483
85 43 1 99.9438 99.0083 100.978
86 43 1 100.327 99.5949 100.064
87 44 1 100.888 99.3691 100.905
88 44 1 101.92 98.8158 100.742
89 45 1 100.672 98.6653 103.025
90 45 1 100.13 99.6838 102.694
91 46 1 101.713 99.1089 98.7281
92 46 1 102.069 97.9493 98.7126
93 47 1 99.4422 97.563 99.8615
94 47 1 100.127 102.893 100.633
95 48 1 98.4719 99.4892 98.2601
96 48 1 97.4215 99.003 98.0304
97 49 1 99.1076 100.32 98.7472
98 49 1 97.9788 100.306 99.1218
99 50 1 102.368 100.165 101.97
100 50 1 96.9703 100.587 102.791
101 51 1 102.281 101.431 102.617
102 51 1 97.3868 101.534 102.603
103 52 1 97.9284 99.754 97.2708
104 52 1 102.881 99.6665 97.4487
105 53 1 100.11 98.0384 100.656
106 53 1 99.6748 98.3519 101.74
107 54 1 102.326 101.787 100.907
108 54 1 101.155 101.57 100.75
109 55 1 101.087 102.967 97.1045
110 55 1 101.651 98.0505 97.1835
111 56 1 102.533 100.624 98.2353
112 56 1 102.646 99.5273 98.4984
113 57 1 101.771 99.3589 97.6265
114 57 1 101.19 98.4504 98.0444
115 58 1 102.898 97.5836 97.2628
116 58 1 97.1299 98.718 97.0535
117 59 1 99.4991 99.5877 98.0804
118 59 1 99.9797 98.5311 97.8412
119 60 1 98.1594 99.0901 100.254
120 60 1 97.6693 99.6914 101.194
121 61 1 101.188 101.435 102.808
122 61 1 101.695 101.414 101.708
123 62 1 98.0214 102.422 100.947
124 62 1 97.2032 101.658 100.529
125 63 1 97.3063 101.106 98.6568
126 63 1 102.86 101.478 97.6125
127 64 1 100.539 99.0327 98.8069
128 64 1 101.344 99.2299 99.6776
129 65 1 99.8101 99.6488 99.154
130 65 1 100.066 100.84 99.1667
131 66 1 99.2845 99.2598 100.129
132 66 1 98.7225 98.3314 99.6201
133 67 1 98.9598 100.914 100.589
134 67 1 99.9273 100.877 101.301
135 68 1 102.958 101.739 99.5287
136 68 1 97.5707 100.883 99.9409
137 69 1 99.5326 101.455 99.8623
138 69 1 99.414 100.293 99.8581
139 70 1 101.278 99.5021 102.644
140 70 1 101.315 100.553 102.182
141 71 1 99.8335 100.384 97.475
142 71 1 100.608 101.184 97.8967
143 72 1 100.931 102.218 97.8827
144 72 1 101.249 102.191 99.0402
145 73 1 100.006 98.5915 99.6869
146 73 1 101.019 98.4169 100.216
147 74 1 98.0776 98.5895 98.774
148 74 1 98.6582 99.4364 99.3361
149 75 1 100.268 100.867 102.47
150 75 1 100.409 99.9682 101.728
151 76 1 100.891 100.145 99.3759
152 76 1 101.384 100.126 98.2597
153 77 1 101.159 101.036 98.8157
154 77 1 100.332 100.247 98.3957
155 78 1 102.951 97.6366 99.4517
156 78 1 102.307 97.6275 100.434
157 79 1 101.904 101.771 99.8995
158 79 1 101.018 102.527 100.189
159 80 1 101.889 102.826 101.038
160 80 1 102.391 102.239 101.955
161 81 2 98.704 100.343 101.484
162 82 2 97.575 102.532 100.014
163 83 2 102.988 102.765 101.012
164 84 2 98.338 99.6365 102.171
165 85 2 100.988 98.377 101.272
166 86 2 97.6701 102.901 97.5827
167 87 2 98.0145 98.2759 100.861
168 88 2 99.7569 102.409 101.509
169 89 2 99.0755 98.409 100.664
170 90 2 99.8812 102.464 99.6519
171 91 2 102.457 99.3108 99.6672
172 92 2 98.698 100.962 99.4913
173 93 2 97.9514 102.701 102.522
174 94 2 101.098 100.527 101.134
175 95 2 99.506 98.3961 102.787
176 96 2 101.609 97.2817 99.6152
177 97 2 102.424 98.5758 97.8847
178 98 2 100.968 100.35 97.2894
179 99 2 97.681 100.885 97.6361
180 100 2 99.971 97.857 98.8137
181 101 2 102.765 102.569 97.9722
182 102 2 99.2733 98.6931 98.7223
183 103 2 102.599 100.824 100.033
184 104 2 102.856 101.15 101.778
185 105 2 102.272 102.799 98.8623
186 106 2 100.539 97.4897 99.6617
187 107 2 100.424 100.705 100.284
188 108 2 103.069 97.0993 102.092
189 109 2 98.3574 100.127 100.287
190 110 2 100.59 99.4389 97.7307
191 111 2 102.014 100.364 97.1461
192 112 2 101.265 97.4677 101.901
193 113 2 98.3118 101.656 102.152
194 114 2 101.956 100.178 99.2699
195 115 2 100.204 101.871 97.0014
196 116 2 99.5674 101.085 98.2174
197 117 2 99.1528 102.485 100.546
198 118 2 98.2159 98.807 102.774
199 119 2 101.626 99.4663 101.629
200 120 2 99.5659 99.9747 100.957
ITEM: TIMESTEP
4000
ITEM: NUMBER OF ATOMS
200
ITEM: BOX BOUNDS pp pp pp
9.6911832108686170e+01 1.0308816789131383e+02
9.7032920903696379e+01 1.0296707909630362e+02
9.7032920903696379e+01 1.0296707909630362e+02
ITEM: ATOMS id mol type x y z
1 1 1 97.5083 98.3155 99.7745
2 1 1 97.4548 99.3579 99.1568
3 2 1 103.057 100.25 99.3169
4 2 1 97.4279 99.978 98.2507
5 3 1 98.6616 100.397 97.8094
6 3 1 99.0175 99.5315 97.1383
7 4 1 98.6577 99.2049 101.239
8 4 1 97.6684 98.7618 101.753
9 5 1 100.581 99.0517 101.951
10 5 1 99.4157 99.4542 101.906
11 6 1 99.907 102.8 97.2474
12 6 1 100.396 97.7613 102.557
13 7 1 102.141 97.1136 102.824
14 7 1 103.085 102.321 102.9
15 8 1 101.798 99.8863 100.477
16 8 1 102.182 100.772 101.095
17 9 1 101.641 101.164 97.8414
18 9 1 101.986 102.081 97.2668
19 10 1 97.3 99.7194 100.196
20 10 1 97.1878 100.654 100.882
21 11 1 96.8485 97.6845 98.3334
22 11 1 97.7033 98.0958 97.5778
23 12 1 98.6722 98.2816 101.91
24 12 1 97.6531 97.9532 102.472
25 13 1 99.2645 100.361 102.42
26 13 1 99.5755 101.47 102.117
27 14 1 100.879 102.465 101.313
28 14 1 100.08 101.848 100.675
29 15 1 97.8626 101.644 99.121
30 15 1 98.5696 101.449 98.2177
31 16 1 101.488 102.323 102.271
32 16 1 100.621 101.619 101.867
33 17 1 96.9979 97.949 101.444
34 17 1 102.494 98.1295 102.385
35 18 1 100.264 97.4275 101.554
36 18 1 101.114 97.4419 100.683
37 19 1 97.1645 102.642 98.9559
38 19 1 98.0502 97.4748 99.283
39 20 1 101.124 98.2831 99.1908
40 20 1 101.106 97.283 98.6399
41 21 1 98.7111 98.552 97.7696
42 21 1 98.5261 97.6399 97.0413
43 22 1 98.3771 97.6552 98.2915
44 22 1 98.7455 102.742 97.6333
45 23 1 98.7778 102.583 99.6527
46 23 1 98.2652 102.522 98.5953
47 24 1 96.8973 98.7297 100.537
48 24 1 102.716 99.7729 101.022
49 25 1 100.652 101.525 99.7315
50 25 1 101.532 100.817 100.071
51 26 1 97.2667 97.4988 100.437
52 26 1 102.647 102.632 99.9318
53 27 1 100.608 97.661 97.7429
54 27 1 101.811 97.322 97.8716
55 28 1 97.9766 97.3595 101.516
56 28 1 98.4054 97.4308 100.374
57 29 1 97.4144 101.956 98.107
58 29 1 102.453 101.676 98.4691
59 30 1 99.1785 101.244 97.1747
60 30 1 99.1031 102.322 102.671
61 31 1 102.958 98.559 98.9762
62 31 1 102.074 98.3691 99.742
63 32 1 97.1452 99.5732 102.212
64 32 1 97.6015 100.614 101.879
65 33 1 102.33 99.2839 102.629
66 33 1 102.667 98.8945 101.614
67 34 1 99.4149 97.6748 97.7662
68 34 1 100.143 102.799 98.2966
69 35 1 99.0651 101.606 101.218
70 35 1 98.4122 101.741 100.183
71 36 1 98.2665 100.725 102.747
72 36 1 98.1821 101.855 97.2738
73 37 1 98.6903 102.517 101.679
74 37 1 99.2552 97.454 101.125
75 38 1 97.9711 101.305 101.14
76 38 1 97.4441 102.159 101.812
77 39 1 99.4449 102.041 97.8699
78 39 1 100.243 101.754 98.7314
79 40 1 102.101 97.9068 101.413
80 40 1 101.522 98.5849 102.177
81 41 1 99.4149 97.3819 102.256
82 41 1 100.428 102.649 102.266
83 42 1 99.2709 97.1915 98.835
84 42 1 99.1637 101.927 98.9268
85 43 1 99.9542 98.9938 101.016
86 43 1 100.288 99.6264 100.096
87 44 1 100.939 99.3797 100.915
88 44 1 101.964 98.818 100.744
89 45 1 100.708 98.6671 97.0337
90 45 1 100.106 99.6866 102.701
91 46 1 101.751 99.1383 98.7858
92 46 1 102.008 97.9548 98.73
93 47 1 99.4766 97.6197 99.8397
94 47 1 100.097 102.888 100.625
95 48 1 98.3574 99.4292 98.2584
96 48 1 97.2907 98.9394 98.0777
97 49 1 99.059 100.254 98.7772
98 49 1 97.9375 100.365 99.1107