ITEM: TIMESTEP
0
ITEM: NUMBER OF ATOMS
200
ITEM: BOX BOUNDS pp pp pp
9.7028538046659435e+01 1.0297146195334057e+02
9.7028538046659435e+01 1.0297146195334057e+02
9.7028538046659435e+01 1.0297146195334057e+02
ITEM: ATOMS id mol type x y z
1 1 1 101.465 99.9724 101.506
2 1 1 102.433 100.627 101.144
3 2 1 99.1709 102.906 102.413
4 2 1 100.274 97.1268 102.791
5 3 1 100.251 100.172 98.249
6 3 1 99.6247 99.6645 97.3655
7 4 1 98.2302 100.634 97.744
8 4 1 97.7511 99.7336 97.2544
9 5 1 100.217 98.2464 102.592
10 5 1 99.4714 99.1578 102.29
11 6 1 97.291 101.277 100.579
12 6 1 97.492 100.111 100.412
13 7 1 98.1664 97.9277 102.113
14 7 1 98.2218 97.099 102.904
15 8 1 100.911 101.405 100.05
16 8 1 100.613 102.342 100.66
17 9 1 100.195 100.568 97.1542
18 9 1 101.356 100.813 97.0684
19 10 1 102.725 101.63 99.6305
20 10 1 101.726 101.061 99.4951
21 11 1 102.31 97.6112 98.7336
22 11 1 97.3465 97.0686 98.4799
23 12 1 97.0875 99.751 101.432
24 12 1 97.5376 98.6976 101.673
25 13 1 102.702 101.68 102.492
26 13 1 97.9203 101.985 102.616
27 14 1 98.9112 101.938 102.024
28 14 1 99.0807 100.977 101.372
29 15 1 97.834 101.602 99.5617
30 15 1 97.7788 102.763 99.6008
31 16 1 100.075 97.6768 100.659
32 16 1 99.7492 102.627 101.263
33 17 1 97.2127 99.0889 100.337
34 17 1 98.0544 99.4469 101.105
35 18 1 102.649 98.5622 99.2354
36 18 1 97.2799 98.1363 98.3023
37 19 1 102.433 100.844 97.2002
38 19 1 102.948 100.647 102.072
39 20 1 102.153 98.4965 98.2116
40 20 1 101.464 97.6187 97.9974
41 21 1 98.7787 98.9444 97.1519
42 21 1 98.181 97.9547 97.5824
43 22 1 97.256 97.6879 99.3677
44 22 1 102.494 98.1383 100.218
45 23 1 98.8292 102.239 99.9853
46 23 1 98.4124 102.361 98.9072
47 24 1 102.138 99.3072 101.845
48 24 1 101.807 98.1786 101.69
49 25 1 99.3821 100.682 100.024
50 25 1 100.615 100.455 99.7204
51 26 1 97.1489 97.2855 100.332
52 26 1 102.335 97.4251 101.185
53 27 1 100.647 101.954 97.2383
54 27 1 101.122 102.584 98.0731
55 28 1 98.174 97.8392 99.969
56 28 1 97.7782 98.6033 99.1333
57 29 1 102.785 101.705 97.6705
58 29 1 97.3309 102.715 97.4924
59 30 1 99.8035 102.594 97.7195
60 30 1 100.461 97.7027 97.7249
61 31 1 102.51 100.585 100.103
62 31 1 102.46 99.5066 99.6103
63 32 1 98.6575 101.299 97.1418
64 32 1 99.28 100.545 97.8211
65 33 1 98.5125 98.9171 101.981
66 33 1 99.4879 98.397 101.439
67 34 1 101.029 98.7615 97.6186
68 34 1 101.808 98.1419 97.0552
69 35 1 102.665 101.62 101.433
70 35 1 97.2213 102.668 101.294
71 36 1 97.9091 101.774 97.7868
72 36 1 98.3748 102.89 98.0284
73 37 1 98.8922 102.301 97.2559
74 37 1 99.873 102.106 102.527
75 38 1 99.4466 101.076 102.445
76 38 1 98.2651 100.884 102.197
77 39 1 98.8669 101.69 98.1837
78 39 1 98.8947 101.354 99.3165
79 40 1 100.82 97.2118 100.019
80 40 1 101.518 97.9872 100.634
81 41 1 100.766 102.346 101.986
82 41 1 100.939 97.2969 101.217
83 42 1 99.5744 101.735 100.597
84 42 1 98.7415 102.38 101.035
85 43 1 100.925 98.1463 98.7182
86 43 1 100.729 98.307 99.8246
87 44 1 101.615 100.026 99.8256
88 44 1 101.713 98.9203 100.129
89 45 1 100.409 99.295 102.797
90 45 1 99.81 100.108 102.226
91 46 1 101.628 98.9131 99.0902
92 46 1 101.871 99.5432 98.118
93 47 1 98.9202 97.1936 99.4198
94 47 1 99.8625 102.601 99.9483
95 48 1 97.9038 98.9457 97.9546
96 48 1 97.7339 98.803 102.71
97 49 1 99.7374 100.142 101.144
98 49 1 98.7773 99.9764 101.753
99 50 1 98.9369 100.346 98.8646
100 50 1 98.6631 99.6848 97.8937
101 51 1 98.2253 100.463 99.6463
102 51 1 98.0577 101.106 98.6621
103 52 1 102.388 101.281 98.6305
104 52 1 97.2887 100.726 99.3096
105 53 1 100.342 97.1591 98.6125
106 53 1 99.8963 98.2772 98.584
107 54 1 100.994 101.546 101.244
108 54 1 100.23 100.908 100.635
109 55 1 101.071 97.7003 102.251
110 55 1 102.248 97.4704 102.379
111 56 1 97.2129 100.821 98.0915
112 56 1 102.433 100.223 98.8596
113 57 1 102.889 99.5794 102.557
114 57 1 102.639 98.4687 102.33
115 58 1 102.283 102.503 97.1552
116 58 1 97.1874 102.717 102.354
117 59 1 102.176 102.454 101.888
118 59 1 101.547 101.8 102.64
119 60 1 99.8906 97.6524 99.4875
120 60 1 99.2674 98.2845 100.272
121 61 1 100.595 101.255 102.361
122 61 1 101.671 100.965 101.846
123 62 1 102.661 102.273 100.452
124 62 1 102.584 102.628 99.3067
125 63 1 97.7553 100.574 101.299
126 63 1 97.8657 99.7751 102.144
127 64 1 101.958 99.2535 97.0911
128 64 1 100.986 99.8634 97.5711
129 65 1 99.5664 99.2993 98.3636
130 65 1 99.8306 98.8737 99.4755
131 66 1 101.344 98.9879 101.12
132 66 1 102.533 98.7029 101.108
133 67 1 100.887 99.8306 100.64
134 67 1 100.569 100.56 101.573
135 68 1 98.0632 97.3025 100.945
136 68 1 97.2195 97.6755 101.735
137 69 1 98.9066 99.5811 99.7586
138 69 1 98.6258 100.284 100.656
139 70 1 102.831 98.7409 97.4466
140 70 1 102.534 97.5502 97.6374
141 71 1 101.868 100.612 98.0314
142 71 1 100.794 101.024 97.9413
143 72 1 100.373 101.907 98.3554
144 72 1 101.502 101.908 98.8286
145 73 1 98.9059 98.4075 98.1542
146 73 1 99.2948 97.4038 98.4936
147 74 1 97.5821 99.6116 99.5005
148 74 1 98.2737 98.8681 100.124
149 75 1 101.252 98.9013 102.285
150 75 1 100.427 99.4561 101.657
151 76 1 100.839 99.3327 99.5947
152 76 1 99.8985 99.9458 99.1769
153 77 1 101.231 100.083 98.782
154 77 1 100.793 101.176 98.9925
155 78 1 101.478 102.958 99.0093
156 78 1 102.041 97.1729 100.1
157 79 1 100.612 102.336 99.2919
158 79 1 99.9207 101.492 99.6245
159 80 1 99.1564 98.1607 102.471
160 80 1 98.901 97.4881 101.535
161 81 2 98.8027 100.102 102.771
162 82 2 97.7951 102.219 100.516
163 83 2 101.629 102.48 101.017
164 84 2 97.5259 100.915 102.962
165 85 2 101.676 97.926 99.5125
166 86 2 98.276 97.6837 98.7652
167 87 2 102.198 99.6716 100.682
168 88 2 99.9692 101.484 101.523
169 89 2 98.9525 98.38 99.2608
170 90 2 98.4141 101.302 100.437
171 91 2 101.973 101.502 100.558
172 92 2 98.1211 102.796 101.927
173 93 2 99.2439 97.5389 97.4148
174 94 2 101.331 100.71 100.743
175 95 2 99.7709 98.5337 97.5471
176 96 2 102.957 99.2944 98.5561
177 97 2 97.3476 97.7394 102.913
178 98 2 100.961 100.083 102.413
179 99 2 97.337 101.995 98.7068
180 100 2 101.334 102.938 102.945
181 101 2 101.764 101.632 97.8103
182 102 2 98.5414 99.2715 98.8676
183 103 2 101.587 102.214 99.9175
184 104 2 99.1018 97.2655 100.453
185 105 2 102.341 102.518 98.2737
186 106 2 99.4894 102.303 98.8412
187 107 2 99.9399 99.8099 100.22
188 108 2 98.4691 98.3168 101.035
189 109 2 99.1522 99.2424 100.888
190 110 2 102.782 99.9064 97.7381
191 111 2 97.8475 99.9754 98.5482
192 112 2 99.9842 97.5476 101.863
193 113 2 97.913 101.72 101.44
194 114 2 100.59 99.1571 98.4958
195 115 2 99.763 101.464 97.4892
196 116 2 99.6599 101.125 98.6298
197 117 2 97.4784 98.1872 100.766
198 118 2 102.034 100.191 102.431
199 119 2 100.673 98.316 101.476
200 120 2 100.196 98.8697 100.698
ITEM: TIMESTEP
1000
ITEM: NUMBER OF ATOMS
200
ITEM: BOX BOUNDS pp pp pp
9.6998674357544118e+01 1.0300132564245588e+02
9.7028538046659435e+01 1.0297146195334057e+02
9.7028538046659435e+01 1.0297146195334057e+02
ITEM: ATOMS id mol type x y z
1 1 1 101.496 100.054 101.473
2 1 1 102.495 100.598 101.141
3 2 1 99.1716 102.896 102.37
4 2 1 100.266 97.1131 102.771
5 3 1 100.242 100.232 98.2781
6 3 1 99.6707 99.7259 97.3744
7 4 1 98.2757 100.679 97.8107
8 4 1 97.722 99.789 97.3096
9 5 1 100.238 98.2234 102.586
10 5 1 99.4832 99.1605 102.394
11 6 1 97.1882 101.251 100.518
12 6 1 97.4965 100.134 100.411
13 7 1 98.178 97.9687 102.105
14 7 1 98.2231 97.1166 102.873
15 8 1 100.914 101.458 100.051
16 8 1 100.621 102.398 100.628
17 9 1 100.214 100.589 97.1336
18 9 1 101.381 100.767 97.031
19 10 1 102.729 101.644 99.6129
20 10 1 101.741 101.078 99.4931
21 11 1 102.334 97.6729 98.7145
22 11 1 97.2982 97.0399 98.5374
23 12 1 97.005 99.7492 101.43
24 12 1 97.4882 98.7059 101.684
25 13 1 102.806 101.718 102.494
26 13 1 97.9267 102.039 102.67
27 14 1 98.8378 101.908 102.07
28 14 1 99.0854 100.946 101.365
29 15 1 97.82 101.541 99.575
30 15 1 97.7571 102.72 99.5586
31 16 1 100.166 97.6268 100.653
32 16 1 99.6967 102.638 101.205
33 17 1 97.1716 99.1135 100.438
34 17 1 98.0693 99.4454 101.126
35 18 1 102.655 98.5563 99.1745
36 18 1 97.2563 98.1438 98.213
37 19 1 102.435 100.845 97.1603
38 19 1 103.044 100.695 102.113
39 20 1 102.234 98.5455 98.102
40 20 1 101.483 97.6568 98.0277
41 21 1 98.724 98.9746 97.1485
42 21 1 98.165 98.0157 97.5459
43 22 1 97.1589 97.6632 99.3471
44 22 1 102.525 98.1994 100.173
45 23 1 98.7682 102.185 99.9143
46 23 1 98.3795 102.345 98.7934
47 24 1 102.133 99.3196 101.809
48 24 1 101.796 98.125 101.68
49 25 1 99.3286 100.623 99.979
50 25 1 100.542 100.457 99.7637
51 26 1 97.1781 97.2618 100.307
52 26 1 102.357 97.4231 101.166
53 27 1 100.748 101.941 97.259
54 27 1 101.187 102.624 98.1037
55 28 1 98.1242 97.8232 99.9556
56 28 1 97.717 98.5885 99.0637
57 29 1 102.822 101.708 97.673
58 29 1 97.2868 102.77 97.4748
59 30 1 99.9054 102.641 97.7063
60 30 1 100.408 97.746 97.7603
61 31 1 102.512 100.51 100.052
62 31 1 102.499 99.4252 99.6426
63 32 1 98.708 101.326 97.1452
64 32 1 99.2921 100.594 97.8168
65 33 1 98.566 98.9568 101.962
66 33 1 99.482 98.482 101.49
67 34 1 100.98 98.7187 97.7071
68 34 1 101.754 98.1484 97.0378
69 35 1 102.641 101.617 101.393
70 35 1 97.1911 102.635 101.298
71 36 1 97.888 101.871 97.8066
72 36 1 98.3286 102.971 97.958
73 37 1 98.893 102.333 97.3365
74 37 1 99.8681 102.102 102.616
75 38 1 99.4724 101.031 102.41
76 38 1 98.2915 100.908 102.24
77 39 1 98.8449 101.658 98.1547
78 39 1 98.8878 101.33 99.2859
79 40 1 100.87 97.1991 99.9437
80 40 1 101.504 98.0062 100.648
81 41 1 100.821 102.308 102.063
82 41 1 101.036 97.2914 101.292
83 42 1 99.5918 101.746 100.571
84 42 1 98.6984 102.317 101.023
85 43 1 100.866 98.1513 98.7108
86 43 1 100.766 98.2337 99.8825
87 44 1 101.583 100.029 99.7614
88 44 1 101.67 98.9104 100.147
89 45 1 100.503 99.2137 102.815
90 45 1 99.8454 100.069 102.267
91 46 1 101.635 98.8557 99.0693
92 46 1 101.869 99.5315 98.1327
93 47 1 98.9037 97.171 99.3559
94 47 1 99.8267 102.593 99.9796
95 48 1 97.8856 98.944 97.9536
96 48 1 97.7456 98.8599 102.707
97 49 1 99.7605 100.048 101.194
98 49 1 98.8029 99.9798 101.755
99 50 1 98.9472 100.347 98.8481
100 50 1 98.6968 99.6685 97.9247
101 51 1 98.1961 100.423 99.6753
102 51 1 98.0404 101.065 98.7055
103 52 1 102.368 101.261 98.6391
104 52 1 97.2213 100.71 99.2845
105 53 1 100.329 97.1382 98.6696
106 53 1 99.8518 98.264 98.595
107 54 1 100.89 101.542 101.2
108 54 1 100.148 100.856 100.617
109 55 1 101.098 97.6247 102.258
110 55 1 102.285 97.4337 102.375
111 56 1 97.1402 100.808 98.1035
112 56 1 102.414 100.155 98.8488
113 57 1 102.916 99.591 102.564
114 57 1 102.617 98.4592 102.288
115 58 1 102.314 102.476 97.1334
116 58 1 97.1667 102.689 102.339
117 59 1 102.182 102.493 101.875
118 59 1 101.657 101.781 102.628
119 60 1 99.8731 97.6499 99.5207
120 60 1 99.3105 98.2861 100.297
121 61 1 100.672 101.266 102.363
122 61 1 101.669 101.129 101.751
123 62 1 102.702 102.267 100.449
124 62 1 102.602 102.67 99.3039
125 63 1 97.761 100.677 101.301
126 63 1 97.8832 99.9171 102.218
127 64 1 101.94 99.2845 97.0938
128 64 1 101.026 99.871 97.5899
129 65 1 99.5681 99.2999 98.3694
130 65 1 99.7627 98.874 99.475
131 66 1 101.336 98.986 101.171
132 66 1 102.518 98.6416 101.115
133 67 1 100.884 99.7717 100.645
134 67 1 100.592 100.529 101.557
135 68 1 98.0428 97.3048 100.921
136 68 1 97.2205 97.6553 101.776
137 69 1 98.8732 99.6186 99.8016
138 69 1 98.5904 100.322 100.703
139 70 1 102.899 98.745 97.3524
140 70 1 102.499 97.6125 97.5969
141 71 1 101.892 100.598 97.9961
142 71 1 100.825 101.082 97.9587
143 72 1 100.422 101.965 98.3697
144 72 1 101.541 101.904 98.8331
145 73 1 98.8704 98.4368 98.1679
146 73 1 99.2664 97.3735 98.4098
147 74 1 97.5525 99.5663 99.4865
148 74 1 98.2297 98.8564 100.163
149 75 1 101.312 98.8402 102.284
150 75 1 100.449 99.3493 101.676
151 76 1 100.777 99.3043 99.6047
152 76 1 99.835 99.9208 99.1981
153 77 1 101.252 100.177 98.7445
154 77 1 100.767 101.203 99.0381
155 78 1 101.538 102.953 99.0799
156 78 1 102.09 97.1816 100.176
157 79 1 100.649 102.33 99.3277
158 79 1 99.9434 101.433 99.6226
159 80 1 99.1818 98.1671 102.461
160 80 1 98.9495 97.5283 101.504
161 81 2 98.8139 100.097 102.85
162 82 2 97.7607 102.192 100.504
163 83 2 101.635 102.381 101.034
164 84 2 97.5515 100.97 103.038
165 85 2 101.72 97.8979 99.5586
166 86 2 98.2159 97.6569 98.7612
167 87 2 102.18 99.6909 100.649
168 88 2 99.9185 101.57 101.588
169 89 2 98.8913 98.3204 99.3156
170 90 2 98.4403 101.33 100.436
171 91 2 102.012 101.466 100.557
172 92 2 98.1282 102.828 101.889
173 93 2 99.2582 97.5552 97.3675
174 94 2 101.34 100.709 100.662
175 95 2 99.7657 98.5781 97.549
176 96 2 103.039 99.2841 98.5495
177 97 2 97.3244 97.762 102.863
178 98 2 101.018 100.029 102.382
179 99 2 97.3165 101.947 98.7358
180 100 2 101.385 102.899 103.032
181 101 2 101.756 101.647 97.7694
182 102 2 98.5117 99.2691 98.8872
183 103 2 101.652 102.213 99.9122
184 104 2 99.0323 97.2627 100.376
185 105 2 102.339 102.538 98.214
186 106 2 99.4585 102.252 98.8715
187 107 2 99.9127 99.7392 100.238
188 108 2 98.4953 98.3165 100.998
189 109 2 99.1084 99.2731 100.859
190 110 2 102.757 99.8828 97.7467
191 111 2 97.8457 99.9934 98.5445
192 112 2 99.9822 97.5028 101.831
193 113 2 97.8225 101.751 101.529
194 114 2 100.611 99.24 98.5605
195 115 2 99.7629 101.488 97.5075
196 116 2 99.678 101.195 98.608
197 117 2 97.4414 98.1619 100.8
198 118 2 102.082 100.231 102.335
199 119 2 100.644 98.2713 101.459
200 120 2 100.18 98.8084 100.718
ITEM: TIMESTEP
2000
ITEM: NUMBER OF ATOMS
200
ITEM: BOX BOUNDS pp pp pp
9.6968510533363428e+01 1.0303148946663657e+02
9.7028538046659435e+01 1.0297146195334057e+02
9.7028538046659435e+01 1.0297146195334057e+02
ITEM: ATOMS id mol type x y z
1 1 1 101.537 99.9777 101.484
2 1 1 102.479 100.564 101.107
3 2 1 99.1465 102.969 102.411
4 2 1 100.282 97.1011 102.801
5 3 1 100.279 100.196 98.2306
6 3 1 99.6 99.6971 97.3569
7 4 1 98.2355 100.659 97.7298
8 4 1 97.6868 99.7919 97.2437
9 5 1 100.294 98.2218 102.643
10 5 1 99.4986 99.1147 102.382
11 6 1 97.1658 101.267 100.54
12 6 1 97.3553 100.116 100.385
13 7 1 98.1418 98.0016 102.116
14 7 1 98.1719 97.0883 102.89
15 8 1 100.92 101.392 100.1
16 8 1 100.624 102.316 100.655
17 9 1 100.272 100.564 97.1909
18 9 1 101.41 100.783 97.0752
19 10 1 102.758 101.632 99.6308
20 10 1 101.721 101.046 99.503
21 11 1 102.364 97.6056 98.7079
22 11 1 97.2931 97.0244 98.5332
23 12 1 97.0118 99.7318 101.417
24 12 1 97.4991 98.7307 101.674
25 13 1 102.783 101.711 102.483
26 13 1 97.9053 101.94 102.668
27 14 1 98.9213 101.879 102.028
28 14 1 99.1256 100.967 101.302
29 15 1 97.8377 101.578 99.5863
30 15 1 97.7371 102.757 99.5676
31 16 1 100.062 97.6536 100.694
32 16 1 99.6796 102.602 101.175
33 17 1 97.1511 99.034 100.28
34 17 1 97.9822 99.4518 101.022
35 18 1 102.64 98.5639 99.1734
36 18 1 97.2307 98.1339 98.2758
37 19 1 102.506 100.888 97.1788
38 19 1 102.955 100.676 102.043
39 20 1 102.226 98.5594 98.1542
40 20 1 101.479 97.6868 97.9434
41 21 1 98.7052 98.9326 97.1458
42 21 1 98.0855 97.9623 97.6312
43 22 1 97.1529 97.7002 99.3817
44 22 1 102.546 98.124 100.181
45 23 1 98.7993 102.202 99.9456
46 23 1 98.2975 102.303 98.8197
47 24 1 102.17 99.29 101.828
48 24 1 101.858 98.149 101.706
49 25 1 99.3369 100.63 100.036
50 25 1 100.593 100.44 99.827
51 26 1 97.1534 97.2487 100.341
52 26 1 102.397 97.4308 101.188
53 27 1 100.711 101.928 97.2584
54 27 1 101.16 102.623 98.0786
55 28 1 98.1863 97.8035 99.9731
56 28 1 97.7134 98.6013 99.1855
57 29 1 102.883 101.751 97.6882
58 29 1 97.2442 102.828 97.4931
59 30 1 99.8292 102.603 97.7284
60 30 1 100.417 97.6836 97.7587
61 31 1 102.544 100.554 100.034
62 31 1 102.518 99.4675 99.5795
63 32 1 98.6991 101.336 97.1029
64 32 1 99.2866 100.575 97.7715
65 33 1 98.5367 99.0392 101.94
66 33 1 99.5171 98.5115 101.481
67 34 1 100.966 98.7119 97.7094
68 34 1 101.8 98.1204 97.0064
69 35 1 102.629 101.597 101.401
70 35 1 97.1226 102.66 101.33
71 36 1 97.8846 101.812 97.8289
72 36 1 98.3294 102.917 97.9674
73 37 1 98.8974 102.337 97.2439
74 37 1 99.856 102.103 102.565
75 38 1 99.4805 101.046 102.401
76 38 1 98.2781 100.955 102.19
77 39 1 98.9061 101.73 98.1893
78 39 1 98.9139 101.346 99.329
79 40 1 100.78 97.2333 99.9577
80 40 1 101.468 98.0037 100.652
81 41 1 100.794 102.332 102.1
82 41 1 100.952 97.22 101.252
83 42 1 99.5816 101.706 100.522
84 42 1 98.6546 102.237 101.003
85 43 1 100.887 98.1566 98.6846
86 43 1 100.746 98.2909 99.8336
87 44 1 101.63 100.004 99.7452
88 44 1 101.699 98.8769 100.122
89 45 1 100.471 99.2652 102.846
90 45 1 99.8815 100.11 102.281
91 46 1 101.596 98.9731 99.0907
92 46 1 101.939 99.571 98.1536
93 47 1 98.906 97.1552 99.4044
94 47 1 99.85 102.675 100.045
95 48 1 97.8652 98.9849 97.9249
96 48 1 97.7427 98.8803 102.652
97 49 1 99.6891 100.056 101.245
98 49 1 98.6837 100.085 101.69
99 50 1 98.9802 100.34 98.8205
100 50 1 98.6945 99.703 97.8745
101 51 1 98.2514 100.455 99.5981
102 51 1 98.0792 101.127 98.6629
103 52 1 102.364 101.311 98.6311
104 52 1 97.2061 100.777 99.2136
105 53 1 100.322 97.1963 98.7418
106 53 1 99.8433 98.2879 98.6012
107 54 1 101.042 101.493 101.2
108 54 1 100.218 100.858 100.681
109 55 1 101.136 97.6394 102.246
110 55 1 102.362 97.4388 102.414
111 56 1 97.0971 100.862 98.1356
112 56 1 102.371 100.293 98.8529
113 57 1 102.933 99.56 102.564
114 57 1 102.637 98.4884 102.356
115 58 1 102.344 102.503 97.1599
116 58 1 97.1634 102.728 102.382
117 59 1 102.223 102.489 101.88
118 59 1 101.62 101.782 102.595
119 60 1 99.8491 97.7177 99.535
120 60 1 99.2121 98.3086 100.294
121 61 1 100.645 101.207 102.372
122 61 1 101.719 100.97 101.856
123 62 1 102.741 102.261 100.458
124 62 1 102.615 102.678 99.3306
125 63 1 97.7283 100.699 101.225
126 63 1 97.7751 99.9398 102.151
127 64 1 101.987 99.1988 97.1716
128 64 1 101.069 99.8461 97.6163
129 65 1 99.5675 99.2789 98.384
130 65 1 99.8126 98.8683 99.4937
131 66 1 101.368 98.9485 101.152
132 66 1 102.567 98.6703 101.073
133 67 1 100.923 99.7491 100.643
134 67 1 100.613 100.509 101.575
135 68 1 98.0299 97.3037 100.963
136 68 1 97.2073 97.6661 101.777
137 69 1 98.9711 99.6866 99.6898
138 69 1 98.5275 100.301 100.655
139 70 1 102.928 98.7819 97.4141
140 70 1 102.575 97.6622 97.6339
141 71 1 101.852 100.603 97.9946
142 71 1 100.841 101.073 97.9401
143 72 1 100.377 101.973 98.3829
144 72 1 101.507 101.916 98.8065
145 73 1 98.8848 98.437 98.1392
146 73 1 99.2279 97.3431 98.4392
147 74 1 97.545 99.6523 99.4698
148 74 1 98.2738 98.8666 100.075
149 75 1 101.318 98.8213 102.33
150 75 1 100.427 99.3046 101.726
151 76 1 100.819 99.3231 99.6287
152 76 1 99.8978 99.9434 99.2046
153 77 1 101.251 100.156 98.7275
154 77 1 100.788 101.159 99.0455
155 78 1 101.537 102.899 99.0814
156 78 1 102.123 97.1814 100.146
157 79 1 100.59 102.348 99.3509
158 79 1 99.9562 101.36 99.6218
159 80 1 99.1714 98.1342 102.488
160 80 1 98.9446 97.5087 101.508
161 81 2 98.7855 100.078 102.734
162 82 2 97.7373 102.201 100.495
163 83 2 101.673 102.438 100.973
164 84 2 97.5308 100.95 103.011
165 85 2 101.683 97.8968 99.5158
166 86 2 98.2126 97.6265 98.7989
167 87 2 102.229 99.6187 100.63
168 88 2 99.9977 101.573 101.521
169 89 2 98.867 98.3295 99.2618
170 90 2 98.4353 101.335 100.411
171 91 2 102.036 101.485 100.56
172 92 2 98.1215 102.767 101.882
173 93 2 99.2578 97.531 97.4021
174 94 2 101.431 100.671 100.699
175 95 2 99.7307 98.5585 97.5412
176 96 2 103.046 99.3309 98.5434
177 97 2 97.3564 97.8264 102.882
178 98 2 101.018 100.03 102.39
179 99 2 97.2523 101.951 98.7773
180 100 2 101.373 102.92 102.993
181 101 2 101.795 101.63 97.7752
182 102 2 98.5037 99.269 98.8799
183 103 2 101.616 102.227 99.9015
184 104 2 98.9878 97.2391 100.432
185 105 2 102.377 102.54 98.2343
186 106 2 99.5088 102.289 99.0031
187 107 2 99.9272 99.7522 100.297
188 108 2 98.4319 98.3368 101.035
189 109 2 99.0635 99.2796 100.882
190 110 2 102.798 99.9772 97.6697
191 111 2 97.8335 100.019 98.5061
192 112 2 99.9699 97.5004 101.881
193 113 2 97.7899 101.776 101.486
194 114 2 100.574 99.2104 98.5623
195 115 2 99.7761 101.47 97.455
196 116 2 99.6872 101.148 98.5826
197 117 2 97.4259 98.172 100.777
198 118 2 102.075 100.199 102.467
199 119 2 100.68 98.2269 101.508
200 120 2 100.204 98.7515 100.688
ITEM: TIMESTEP
3000
ITEM: NUMBER OF ATOMS
200
ITEM: BOX BOUNDS pp pp pp
9.6938043557709847e+01 1.0306195644229015e+02
9.7028538046659435e+01 1.0297146195334057e+02
9.7028538046659435e+01 1.0297146195334057e+02
ITEM: ATOMS id mol type x y z
1 1 1 101.487 100.014 101.478
2 1 1 102.457 100.597 101.18
3 2 1 99.2283 102.902 102.418
4 2 1 100.368 97.0856 102.799
5 3 1 100.266 100.215 98.2787
6 3 1 99.631 99.6891 97.3862
7 4 1 98.2405 100.655 97.7654
8 4 1 97.6491 99.7888 97.2902
9 5 1 100.239 98.2906 102.542
10 5 1 99.4929 99.1859 102.327
11 6 1 97.1772 101.245 100.521
12 6 1 97.2912 100.09 100.392
13 7 1 98.1438 97.9705 102.174
14 7 1 98.207 97.088 102.887
15 8 1 100.94 101.433 100.088
16 8 1 100.722 102.47 100.554
17 9 1 100.272 100.571 97.2249
18 9 1 101.408 100.867 97.044
19 10 1 102.742 101.609 99.6702
20 10 1 101.743 101.012 99.4363
21 11 1 102.392 97.611 98.7308
22 11 1 97.2902 97.0593 98.5509
23 12 1 96.9659 99.7879 101.423
24 12 1 97.4142 98.7055 101.697
25 13 1 102.925 101.7 102.461
26 13 1 97.9614 101.977 102.657
27 14 1 98.9262 101.942 102.021
28 14 1 99.0884 100.96 101.362
29 15 1 97.7759 101.548 99.6049
30 15 1 97.7149 102.725 99.6013
31 16 1 100.125 97.6169 100.638
32 16 1 99.7063 102.62 101.193
33 17 1 97.0634 99.0644 100.28
34 17 1 97.9251 99.426 101.098
35 18 1 102.727 98.5895 99.2475
36 18 1 97.1654 98.1651 98.2803
37 19 1 102.508 100.953 97.1353
38 19 1 103.125 100.653 102.088
39 20 1 102.263 98.5588 98.2517
40 20 1 101.546 97.6638 97.9794
41 21 1 98.6867 98.9899 97.1433
42 21 1 98.154 97.9761 97.5744
43 22 1 97.2044 97.7 99.3521
44 22 1 102.552 98.0523 100.2
45 23 1 98.7355 102.174 99.9513
46 23 1 98.3325 102.332 98.8364
47 24 1 102.154 99.2845 101.839
48 24 1 101.811 98.1596 101.678
49 25 1 99.3191 100.609 100.039
50 25 1 100.515 100.468 99.7782
51 26 1 97.0903 97.2357 100.345
52 26 1 102.389 97.4509 101.164
53 27 1 100.773 101.957 97.1864
54 27 1 101.121 102.681 98.0695
55 28 1 98.2098 97.86 99.9642
56 28 1 97.7375 98.5618 99.1353
57 29 1 102.902 101.711 97.6886
58 29 1 97.2981 102.773 97.5449
59 30 1 99.92 102.632 97.7406
60 30 1 100.438 97.7091 97.7357
61 31 1 102.513 100.582 99.9989
62 31 1 102.527 99.5251 99.5804
63 32 1 98.7038 101.359 97.1234
64 32 1 99.3132 100.597 97.8117
65 33 1 98.4734 98.9602 101.949
66 33 1 99.4994 98.4718 101.507
67 34 1 100.947 98.6113 97.6745
68 34 1 101.841 98.164 97.0053
69 35 1 102.759 101.623 101.407
70 35 1 97.1792 102.681 101.317
71 36 1 97.855 101.825 97.8058
72 36 1 98.3074 102.936 97.9833
73 37 1 98.9377 102.323 97.3342
74 37 1 99.8537 102.078 102.556
75 38 1 99.4627 101.049 102.422
76 38 1 98.2955 100.908 102.174
77 39 1 98.8404 101.59 98.1502
78 39 1 98.8686 101.3 99.3478
79 40 1 100.828 97.2931 99.8208
80 40 1 101.432 97.9921 100.617
81 41 1 100.744 102.31 101.988
82 41 1 101.046 97.2537 101.294
83 42 1 99.5103 101.749 100.565
84 42 1 98.6051 102.299 100.998
85 43 1 100.914 98.1287 98.6651
86 43 1 100.807 98.3369 99.7876
87 44 1 101.626 100.002 99.766
88 44 1 101.817 98.8799 100.109
89 45 1 100.509 99.3007 102.851
90 45 1 99.8888 100.116 102.273
91 46 1 101.589 98.9051 99.0268
92 46 1 101.999 99.5461 98.1791
93 47 1 98.8743 97.136 99.434
94 47 1 99.8021 102.591 99.9582
95 48 1 97.8186 98.9241 97.9523
96 48 1 97.6672 98.8237 102.717
97 49 1 99.6918 100.041 101.209
98 49 1 98.7349 100 101.778
99 50 1 98.8962 100.325 98.8749
100 50 1 98.6456 99.7054 97.913
101 51 1 98.1039 100.445 99.6402
102 51 1 98.0084 101.128 98.6699
103 52 1 102.407 101.376 98.6716
104 52 1 97.1619 100.718 99.2533
105 53 1 100.284 97.1124 98.7003
106 53 1 99.8756 98.2698 98.5405
107 54 1 100.952 101.554 101.201
108 54 1 100.138 100.867 100.639
109 55 1 101.114 97.6861 102.27
110 55 1 102.333 97.4408 102.328
111 56 1 97.0723 100.836 98.1433
112 56 1 102.402 100.254 98.8336
113 57 1 102.958 99.5466 102.519
114 57 1 102.666 98.4245 102.239
115 58 1 102.441 102.516 97.1267
116 58 1 97.2063 102.677 102.385
117 59 1 102.404 102.458 101.891
118 59 1 101.728 101.827 102.6
119 60 1 99.8729 97.6698 99.5241
120 60 1 99.2672 98.2719 100.32
121 61 1 100.601 101.219 102.371
122 61 1 101.645 101.015 101.794
123 62 1 102.698 102.285 100.486
124 62 1 102.724 102.749 99.3611
125 63 1 97.7161 100.608 101.283
126 63 1 97.785 99.7834 102.147
127 64 1 101.988 99.3572 96.9869
128 64 1 101.095 99.9074 97.6585
129 65 1 99.5363 99.2809 98.3626
130 65 1 99.8731 98.8306 99.4529
131 66 1 101.334 99.0018 101.078
132 66 1 102.537 98.6727 101.061
133 67 1 100.817 99.7989 100.651
134 67 1 100.609 100.539 101.553
135 68 1 98.0124 97.3131 100.938
136 68 1 97.2154 97.6732 101.793
137 69 1 98.8135 99.6123 99.7785
138 69 1 98.5177 100.288 100.663
139 70 1 102.87 98.7752 97.4256
140 70 1 102.596 97.564 97.6324
141 71 1 101.898 100.631 97.9969
142 71 1 100.849 101.102 97.9624
143 72 1 100.354 101.968 98.4352
144 72 1 101.495 101.903 98.77
145 73 1 98.8943 98.4025 98.151
146 73 1 99.2937 97.3598 98.4561
147 74 1 97.4686 99.5979 99.4393
148 74 1 98.1433 98.9081 100.193
149 75 1 101.271 98.8352 102.34
150 75 1 100.468 99.3916 101.686
151 76 1 100.808 99.392 99.5754
152 76 1 99.8211 99.9037 99.1784
153 77 1 101.253 100.139 98.7535
154 77 1 100.758 101.195 99.0619
155 78 1 101.599 102.909 99.0421
156 78 1 101.963 97.1701 100.179
157 79 1 100.642 102.294 99.3751
158 79 1 99.8898 101.435 99.6449
159 80 1 99.1432 98.1445 102.528
160 80 1 98.93 97.5037 101.558
161 81 2 98.7874 100.063 102.821
162 82 2 97.6966 102.182 100.512
163 83 2 101.704 102.394 101.073
164 84 2 97.548 100.974 103.019
165 85 2 101.749 97.942 99.4656
166 86 2 98.2574 97.6622 98.7551
167 87 2 102.201 99.6734 100.669
168 88 2 99.9494 101.503 101.552
169 89 2 98.9219 98.3406 99.2976
170 90 2 98.3772 101.299 100.456
171 91 2 102.043 101.469 100.62
172 92 2 98.1357 102.827 101.9
173 93 2 99.2596 97.5287 97.4199
174 94 2 101.33 100.675 100.656
175 95 2 99.7491 98.5383 97.5125
176 96 2 103.12 99.3149 98.5474
177 97 2 97.257 97.7427 102.905
178 98 2 101.074 100.052 102.43
179 99 2 97.2299 101.993 98.8014
180 100 2 101.475 102.935 102.958
181 101 2 101.793 101.731 97.7808
182 102 2 98.4497 99.2737 98.8809
183 103 2 101.728 102.144 99.8567
184 104 2 99.0627 97.2415 100.449
185 105 2 102.442 102.467 98.2741
186 106 2 99.4458 102.214 98.8845
187 107 2 99.8844 99.7354 100.202
188 108 2 98.4104 98.3253 101.063
189 109 2 99.0174 99.2335 100.933
190 110 2 102.801 99.9824 97.6442
191 111 2 97.7997 100.004 98.5156
192 112 2 100.007 97.5424 101.826
193 113 2 97.7969 101.764 101.523
194 114 2 100.588 99.2184 98.5009
195 115 2 99.8018 101.466 97.498
196 116 2 99.6757 101.14 98.6393
197 117 2 97.3755 98.1522 100.776
198 118 2 102.136 100.263 102.329
199 119 2 100.656 98.2684 101.474
200 120 2 100.193 98.806 100.681
ITEM: TIMESTEP
4000
ITEM: NUMBER OF ATOMS
200
ITEM: BOX BOUNDS pp pp pp
9.6907270383860379e+01 1.0309272961613962e+02
9.7028538046659435e+01 1.0297146195334057e+02
9.7028538046659435e+01 1.0297146195334057e+02
ITEM: ATOMS id mol type x y z
1 1 1 101.504 99.9851 101.482
2 1 1 102.482 100.563 101.197
3 2 1 99.2275 102.928 102.4
4 2 1 100.338 97.1051 102.833
5 3 1 100.219 100.159 98.278
6 3 1 99.6336 99.6903 97.3414
7 4 1 98.2135 100.666 97.7739
8 4 1 97.6812 99.7892 97.2454
9 5 1 100.278 98.2307 102.589
10 5 1 99.4822 99.162 102.399
11 6 1 97.1569 101.254 100.571
12 6 1 97.401 100.152 100.351
13 7 1 98.1172 98.017 102.202
14 7 1 98.1943 97.148 102.917
15 8 1 100.982 101.44 100.039
16 8 1 100.776 102.468 100.526
17 9 1 100.225 100.555 97.1638
18 9 1 101.439 100.844 97.0567
19 10 1 102.817 101.611 99.6556
20 10 1 101.791 101.04 99.4633
21 11 1 102.467 97.6351 98.7175
22 11 1 97.2891 97.0612 98.499
23 12 1 96.9549 99.7672 101.398
24 12 1 97.4105 98.7295 101.678
25 13 1 102.891 101.717 102.457
26 13 1 97.8395 102.004 102.706
27 14 1 98.8543 101.943 102.136
28 14 1 99.0228 101.018 101.402
29 15 1 97.7723 101.532 99.6031
30 15 1 97.6555 102.728 99.6023
31 16 1 100.144 97.6908 100.698
32 16 1 99.75 102.57 101.125
33 17 1 97.061 99.141 100.34
34 17 1 97.9086 99.4624 101.086
35 18 1 102.763 98.5613 99.2072
36 18 1 97.1895 98.1496 98.259
37 19 1 102.502 100.885 97.1396
38 19 1 103.187 100.688 102.108
39 20 1 102.303 98.5326 98.2311
40 20 1 101.535 97.6979 98.0107
41 21 1 98.6994 98.8493 97.1367
42 21 1 98.0672 97.9976 97.6114
43 22 1 97.1753 97.6679 99.3756
44 22 1 102.594 98.1498 100.166
45 23 1 98.7212 102.199 99.9612
46 23 1 98.262 102.348 98.8628
47 24 1 102.193 99.3085 101.845
48 24 1 101.855 98.151 101.678
49 25 1 99.3164 100.609 100.003
50 25 1 100.586 100.458 99.7667
51 26 1 97.0213 97.2304 100.318
52 26 1 102.461 97.4643 101.143
53 27 1 100.814 101.867 97.2451
54 27 1 101.132 102.632 98.077
55 28 1 98.1233 97.7985 99.964
56 28 1 97.7156 98.583 99.0934
57 29 1 102.928 101.708 97.6714
58 29 1 97.2328 102.747 97.4865
59 30 1 99.7699 102.619 97.863
60 30 1 100.448 97.6904 97.7566
61 31 1 102.579 100.589 100.06
62 31 1 102.576 99.5313 99.5839
63 32 1 98.6262 101.355 97.1254
64 32 1 99.3083 100.58 97.7414
65 33 1 98.5175 98.9879 101.928
66 33 1 99.5075 98.4141 101.464
67 34 1 100.983 98.6838 97.6909
68 34 1 101.786 98.1635 97.0033
69 35 1 102.755 101.57 101.411
70 35 1 97.0673 102.652 101.331
71 36 1 97.7998 101.835 97.8818
72 36 1 98.3642 102.898 97.9867
73 37 1 98.8793 102.346 97.2594
74 37 1 99.9309 102.125 102.589
75 38 1 99.3606 100.99 102.456
76 38 1 98.2196 100.835 102.243
77 39 1 98.8227 101.621 98.1796
78 39 1 98.8386 101.325 99.3614
79 40 1 100.927 97.2703 99.8371
80 40 1 101.523 97.9876 100.639
81 41 1 100.775 102.307 101.951
82 41 1 101.088 97.2845 101.283
83 42 1 99.4946 101.666 100.606
84 42 1 98.6352 102.266 101.098
85 43 1 100.899 98.0942 98.6999
86 43 1 100.786 98.3122 99.8712
87 44 1 101.67 100.025 99.7153
88 44 1 101.761 98.9241 100.079
89 45 1 100.492 99.2804 102.824
90 45 1 99.8513 100.108 102.228
91 46 1 101.592 98.926 99.0209
92 46 1 102.01 99.5277 98.1086
93 47 1 98.9052 97.1361 99.4482
94 47 1 99.8358 102.612 100.009
95 48 1 97.8189 98.9885 97.9342
96 48 1 97.6345 98.8416 102.687
97 49 1 99.6764 100.09 101.177
98 49 1 98.6909 100.047 101.732