ITEM: TIMESTEP
0
ITEM: NUMBER OF ATOMS
200
ITEM: BOX BOUNDS pp pp pp
9.7025025090081186e+01 1.0297497490991881e+02
9.7025025090081186e+01 1.0297497490991881e+02
9.7025025090081186e+01 1.0297497490991881e+02
ITEM: ATOMS id mol type x y z
1 1 1 97.1415 99.1919 101.366
2 1 1 102.688 100.269 101.118
3 2 1 99.4726 97.0979 102.742
4 2 1 100.503 97.0604 97.3826
5 3 1 99.1449 100.037 97.7669
6 3 1 100.214 99.4345 97.8837
7 4 1 98.3249 100.834 97.6762
8 4 1 98.595 102.016 97.4838
9 5 1 100.095 98.5111 102.043
10 5 1 99.5284 99.5028 102.069
11 6 1 100.367 97.1217 98.476
12 6 1 100.095 98.1336 99.051
13 7 1 98.5362 97.321 97.1512
14 7 1 98.1234 102.346 102.555
15 8 1 101.71 100.473 100.574
16 8 1 101.345 101.609 100.614
17 9 1 100.626 100.679 102.429
18 9 1 101.778 100.896 102.377
19 10 1 97.6607 100.755 99.8743
20 10 1 102.885 101.18 100.648
21 11 1 97.0724 102.694 98.305
22 11 1 97.7885 97.3514 99.0534
23 12 1 97.2359 102.961 100.739
24 12 1 97.5776 102.855 101.828
25 13 1 102.971 101.107 101.88
26 13 1 102.687 99.9457 102.129
27 14 1 98.8575 102.025 100.312
28 14 1 98.728 102.581 99.2168
29 15 1 97.2505 101.746 99.693
30 15 1 102.27 102.265 99.2242
31 16 1 100.312 102.46 102.426
32 16 1 100.649 102.576 101.344
33 17 1 98.0662 97.7172 102.189
34 17 1 99.1841 98.0463 102.386
35 18 1 101.021 98.7244 99.4039
36 18 1 102.122 98.8042 99.7628
37 19 1 97.0411 102.053 101.334
38 19 1 102.067 101.247 101.337
39 20 1 102.954 97.8719 98.4491
40 20 1 101.963 98.4084 98.7492
41 21 1 99.9097 98.1328 97.1641
42 21 1 98.7766 98.3356 97.4408
43 22 1 99.4749 97.3554 97.8148
44 22 1 98.3736 102.85 98.1966
45 23 1 97.6492 97.8842 100.105
46 23 1 97.7911 98.4123 99.0076
47 24 1 102.12 97.8774 102.331
48 24 1 102.168 98.7121 101.493
49 25 1 100.382 101.018 99.1157
50 25 1 100.671 100.925 100.227
51 26 1 102.53 102.134 100.418
52 26 1 102.252 97.3327 100.375
53 27 1 101.347 97.1323 98.0314
54 27 1 101.435 102.306 97.1132
55 28 1 98.8965 98.0055 101.374
56 28 1 99.7767 97.3368 101.685
57 29 1 101.226 102.513 98.9297
58 29 1 101.083 97.7714 98.8641
59 30 1 99.6901 102.184 97.3425
60 30 1 99.0269 101.97 102.292
61 31 1 97.184 98.9875 99.9431
62 31 1 97.4637 99.9662 99.2223
63 32 1 97.549 100.22 97.2572
64 32 1 97.7606 100.442 102.067
65 33 1 101.473 97.4059 97.033
66 33 1 100.511 97.5733 102.39
67 34 1 100.612 97.9715 97.9059
68 34 1 100.733 98.7382 102.973
69 35 1 98.2458 99.3343 97.4038
70 35 1 98.2001 99.9765 98.3926
71 36 1 102.655 101.068 102.863
72 36 1 97.1283 102.084 102.422
73 37 1 97.8764 101.669 100.527
74 37 1 98.8448 101.34 101.178
75 38 1 97.6789 99.4624 102.354
76 38 1 97.8106 98.4269 102.937
77 39 1 99.3637 102.449 98.3479
78 39 1 98.4888 101.65 98.454
79 40 1 102.679 98.2958 100.615
80 40 1 101.792 97.789 101.268
81 41 1 100.076 97.2002 100.635
82 41 1 100.746 97.7856 101.389
83 42 1 99.5978 102.581 99.8398
84 42 1 99.0138 97.2066 100.643
85 43 1 100.447 99.1009 100.217
86 43 1 99.4428 99.4984 99.83
87 44 1 101.404 99.5996 100.002
88 44 1 102.362 99.3695 100.627
89 45 1 99.4355 99.1328 97.1533
90 45 1 100.35 99.7593 102.822
91 46 1 102.237 99.1297 97.951
92 46 1 97.5012 98.8711 98.0102
93 47 1 98.9194 98.6691 100.312
94 47 1 98.6509 97.6206 99.6861
95 48 1 98.4984 98.8369 98.3121
96 48 1 97.8824 97.8165 97.8982
97 49 1 99.5716 100.461 102.486
98 49 1 99.0691 100.297 101.432
99 50 1 97.7505 100.907 98.672
100 50 1 98.2936 101.524 99.5057
101 51 1 102.851 100.862 97.9149
102 51 1 101.833 101.357 97.5532
103 52 1 102.818 101.646 98.6384
104 52 1 97.7436 102.263 98.939
105 53 1 100.536 97.0891 99.5903
106 53 1 100.668 98.0709 100.213
107 54 1 100.507 102.231 100.302
108 54 1 99.6783 101.39 100.239
109 55 1 102.323 102.812 102.695
110 55 1 102.312 97.2935 97.769
111 56 1 97.5108 102.88 97.3728
112 56 1 102.649 102.026 97.4086
113 57 1 101.955 98.9892 102.823
114 57 1 102.955 98.6762 102.295
115 58 1 102.484 97.0397 101.639
116 58 1 97.1242 97.5458 102.576
117 59 1 100.129 99.2309 99.0163
118 59 1 101.062 98.8941 98.3807
119 60 1 98.8658 99.024 101.316
120 60 1 98.6179 98.9927 102.44
121 61 1 101.614 99.6782 101.3
122 61 1 100.766 98.8317 101.231
123 62 1 101.783 102.385 101.155
124 62 1 101.597 102.454 99.9666
125 63 1 98.7002 100.975 102.194
126 63 1 99.2465 101.22 97.2379
127 64 1 101.287 99.5183 97.5754
128 64 1 100.955 99.9204 98.6837
129 65 1 98.8822 100.753 98.6237
130 65 1 99.9647 100.284 98.4553
131 66 1 98.7423 99.7605 100.531
132 66 1 98.2503 99.1088 99.6431
133 67 1 99.6971 100.341 100.472
134 67 1 100.024 100.648 101.543
135 68 1 98.0312 102.661 100
136 68 1 98.3788 102.435 101.172
137 69 1 98.7135 100.865 100.27
138 69 1 97.8686 100.72 101.051
139 70 1 97.0849 99.835 98.1625
140 70 1 102.577 100.67 98.9618
141 71 1 101.208 100.52 97.3254
142 71 1 100.528 101.528 97.2163
143 72 1 100.754 102.147 98.021
144 72 1 101.963 102.275 98.1715
145 73 1 99.0886 98.5763 99.2094
146 73 1 99.5883 97.9158 99.9896
147 74 1 98.51 100.124 99.513
148 74 1 97.6595 99.8144 100.383
149 75 1 101.192 100.654 101.501
150 75 1 100.575 99.7148 101.821
151 76 1 100.493 100.001 99.681
152 76 1 101.478 100.606 99.4527
153 77 1 101.837 100.381 98.201
154 77 1 100.873 101.089 98.173
155 78 1 102.765 98.0167 99.4957
156 78 1 101.645 97.8447 99.731
157 79 1 101.058 101.667 99.5475
158 79 1 100.169 102.135 98.9694
159 80 1 101.075 101.715 102.071
160 80 1 100.364 101.521 101.094
161 81 2 98.6586 100.035 102.745
162 82 2 102.935 102.927 99.6363
163 83 2 101.147 97.2119 100.58
164 84 2 97.8465 101.328 102.769
165 85 2 101.495 98.5839 100.551
166 86 2 98.7432 97.8487 98.5527
167 87 2 97.09 97.9472 101.524
168 88 2 99.4943 102.302 101.277
169 89 2 99.8271 98.3105 101
170 90 2 99.3445 101.579 99.2479
171 91 2 102.618 100.088 99.9105
172 92 2 98.0088 97.6306 101.073
173 93 2 97.9657 101.594 101.71
174 94 2 100.686 99.9753 100.83
175 95 2 99.547 98.5184 98.2199
176 96 2 102.859 98.9929 98.9125
177 97 2 102.784 98.3105 97.4547
178 98 2 101.492 99.8526 102.423
179 99 2 101.661 101.407 98.7214
180 100 2 101.694 98.2237 97.636
181 101 2 102.118 101.945 102.112
182 102 2 99.2008 99.6325 98.7486
183 103 2 102.165 101.367 99.7671
184 104 2 99.947 101.471 102.215
185 105 2 102.143 97.2786 98.8889
186 106 2 99.523 97.2773 98.9975
187 107 2 99.4949 100.535 99.457
188 108 2 98.7901 102.956 101.944
189 109 2 98.1195 99.6624 101.478
190 110 2 102.297 100.094 97.2341
191 111 2 97.6335 101.791 97.841
192 112 2 101.343 102.918 101.987
193 113 2 97.0471 99.301 97.1994
194 114 2 102.005 99.6065 99.076
195 115 2 99.821 101.373 98.1935
196 116 2 100.115 100.567 97.4812
197 117 2 97.9488 98.6333 101.712
198 118 2 97.9299 98.7413 100.696
199 119 2 101.264 98.4616 102.116
200 120 2 99.7994 99.3611 101.003
ITEM: TIMESTEP
1000
ITEM: NUMBER OF ATOMS
200
ITEM: BOX BOUNDS pp pp pp
9.6995126095165290e+01 1.0300487390483471e+02
9.7025025090081186e+01 1.0297497490991881e+02
9.7025025090081186e+01 1.0297497490991881e+02
ITEM: ATOMS id mol type x y z
1 1 1 97.1829 99.1454 101.31
2 1 1 102.707 100.245 101.183
3 2 1 99.5146 97.0302 102.693
4 2 1 100.464 97.1056 97.3813
5 3 1 99.2448 99.8793 97.708
6 3 1 100.302 99.2862 97.896
7 4 1 98.2342 100.881 97.6949
8 4 1 98.6174 102.03 97.4646
9 5 1 100.16 98.566 102.047
10 5 1 99.4098 99.4885 102.077
11 6 1 100.3 97.1488 98.4079
12 6 1 100.076 98.1369 99.0873
13 7 1 98.5515 97.3462 97.1208
14 7 1 98.0749 102.416 102.632
15 8 1 101.698 100.486 100.491
16 8 1 101.358 101.62 100.601
17 9 1 100.641 100.727 102.397
18 9 1 101.821 100.85 102.391
19 10 1 97.693 100.776 99.9223
20 10 1 102.911 101.099 100.697
21 11 1 96.985 102.668 98.3803
22 11 1 97.7425 97.3657 99.0624
23 12 1 97.1929 102.926 100.706
24 12 1 97.5843 102.801 101.777
25 13 1 102.983 101.134 101.875
26 13 1 102.701 99.9815 102.203
27 14 1 98.8305 102.021 100.294
28 14 1 98.7187 102.556 99.2605
29 15 1 97.177 101.67 99.6858
30 15 1 102.273 102.253 99.2049
31 16 1 100.46 102.412 102.46
32 16 1 100.628 102.619 101.329
33 17 1 98.0788 97.6897 102.196
34 17 1 99.2028 98.0168 102.367
35 18 1 101.02 98.7071 99.4727
36 18 1 102.149 98.7809 99.7628
37 19 1 96.9778 102.052 101.315
38 19 1 102.058 101.252 101.321
39 20 1 102.988 97.8843 98.4376
40 20 1 101.98 98.3387 98.8143
41 21 1 99.9115 98.0347 97.2119
42 21 1 98.7809 98.3583 97.4543
43 22 1 99.4217 97.293 97.7954
44 22 1 98.334 102.841 98.1842
45 23 1 97.5679 97.8823 100.101
46 23 1 97.7518 98.4057 99.026
47 24 1 102.251 97.9558 102.351
48 24 1 102.237 98.7452 101.514
49 25 1 100.361 100.98 99.1051
50 25 1 100.7 100.917 100.196
51 26 1 102.552 102.096 100.39
52 26 1 102.303 97.3284 100.373
53 27 1 101.314 97.1845 98.0488
54 27 1 101.422 102.333 97.0989
55 28 1 98.8566 97.9844 101.336
56 28 1 99.747 97.3194 101.661
57 29 1 101.203 102.531 98.9229
58 29 1 101.034 97.7809 98.8591
59 30 1 99.7345 102.138 97.3118
60 30 1 98.9605 102.004 102.328
61 31 1 97.214 98.9483 99.9306
62 31 1 97.4292 99.9234 99.2664
63 32 1 97.46 100.27 97.2286
64 32 1 97.7768 100.503 102.082
65 33 1 101.49 97.4876 96.9667
66 33 1 100.459 97.6128 102.374
67 34 1 100.624 98.0815 97.9475
68 34 1 100.767 98.732 102.97
69 35 1 98.1818 99.3902 97.4354
70 35 1 98.1192 99.9994 98.4352
71 36 1 102.756 101.086 102.898
72 36 1 97.0967 102.127 102.414
73 37 1 97.8014 101.712 100.524
74 37 1 98.8199 101.398 101.142
75 38 1 97.6526 99.5233 102.432
76 38 1 97.8002 98.4502 102.927
77 39 1 99.2843 102.361 98.3676
78 39 1 98.3835 101.647 98.4496
79 40 1 102.659 98.3305 100.607
80 40 1 101.832 97.7641 101.233
81 41 1 100.081 97.1476 100.623
82 41 1 100.714 97.7694 101.406
83 42 1 99.6319 102.52 99.8469
84 42 1 98.9764 97.1733 100.588
85 43 1 100.424 99.0451 100.233
86 43 1 99.4555 99.5237 99.8241
87 44 1 101.414 99.5688 99.9543
88 44 1 102.41 99.3446 100.593
89 45 1 99.5516 99.049 97.1178
90 45 1 100.429 99.7632 102.922
91 46 1 102.271 99.083 98.0547
92 46 1 97.4962 98.8979 98.04
93 47 1 98.9691 98.6748 100.308
94 47 1 98.5552 97.7254 99.7153
95 48 1 98.5032 98.8466 98.3502
96 48 1 97.894 97.8654 97.8916
97 49 1 99.6086 100.452 102.474
98 49 1 99.0872 100.325 101.372
99 50 1 97.6557 100.895 98.7241
100 50 1 98.288 101.524 99.4904
101 51 1 102.852 100.831 97.9613
102 51 1 101.804 101.337 97.5429
103 52 1 102.842 101.614 98.6196
104 52 1 97.7363 102.25 99.0131
105 53 1 100.553 97.1198 99.5592
106 53 1 100.64 98.02 100.276
107 54 1 100.555 102.198 100.211
108 54 1 99.7266 101.423 100.154
109 55 1 102.362 102.83 102.674
110 55 1 102.322 97.2831 97.7938
111 56 1 97.4557 102.906 97.4255
112 56 1 102.645 102.054 97.4202
113 57 1 102.022 99.0011 102.824
114 57 1 103.045 98.6693 102.294
115 58 1 102.509 97.0321 101.628
116 58 1 97.1588 97.5734 102.563
117 59 1 100.145 99.2249 99.0176
118 59 1 101.155 98.919 98.4737
119 60 1 98.8767 98.9893 101.31
120 60 1 98.5748 98.9825 102.449
121 61 1 101.655 99.6338 101.244
122 61 1 100.758 98.8562 101.25
123 62 1 101.855 102.341 101.145
124 62 1 101.622 102.457 99.9615
125 63 1 98.7217 101.007 102.161
126 63 1 99.199 101.099 97.3277
127 64 1 101.322 99.4651 97.5944
128 64 1 100.97 99.9829 98.675
129 65 1 99.0048 100.798 98.4118
130 65 1 100.017 100.247 98.381
131 66 1 98.7109 99.8511 100.529
132 66 1 98.28 99.1361 99.6384
133 67 1 99.6968 100.401 100.427
134 67 1 100.078 100.648 101.479
135 68 1 98.05 102.783 100.065
136 68 1 98.3485 102.413 101.151
137 69 1 98.6948 100.894 100.264
138 69 1 97.8787 100.766 101.081
139 70 1 97.0045 99.8563 98.2353
140 70 1 102.544 100.614 99.0447
141 71 1 101.245 100.475 97.2589
142 71 1 100.639 101.535 97.1972
143 72 1 100.714 102.159 98.0302
144 72 1 101.922 102.269 98.133
145 73 1 99.1283 98.6149 99.2424
146 73 1 99.5711 97.8848 100.042
147 74 1 98.4406 100.17 99.4869
148 74 1 97.6999 99.8269 100.404
149 75 1 101.182 100.641 101.504
150 75 1 100.536 99.7281 101.848
151 76 1 100.46 100.009 99.6843
152 76 1 101.405 100.61 99.421
153 77 1 101.861 100.419 98.2176
154 77 1 100.878 101.051 98.1795
155 78 1 102.768 97.9773 99.4852
156 78 1 101.621 97.8566 99.7314
157 79 1 101.079 101.666 99.4995
158 79 1 100.145 102.173 98.9506
159 80 1 101.097 101.761 101.891
160 80 1 100.264 101.605 101.115
161 81 2 98.6475 100.115 102.784
162 82 2 103.002 102.892 99.6574
163 83 2 101.162 97.1898 100.588
164 84 2 97.855 101.359 102.761
165 85 2 101.522 98.5759 100.56
166 86 2 98.7031 97.8479 98.5833
167 87 2 97.0776 97.9449 101.467
168 88 2 99.4848 102.305 101.279
169 89 2 99.832 98.3385 101.058
170 90 2 99.3349 101.546 99.1642
171 91 2 102.719 100.118 100.007
172 92 2 97.9739 97.5937 101.056
173 93 2 97.9517 101.617 101.722
174 94 2 100.732 99.9542 100.812
175 95 2 99.5216 98.5459 98.2344
176 96 2 102.859 98.9693 98.9268
177 97 2 102.794 98.2934 97.431
178 98 2 101.479 99.833 102.395
179 99 2 101.699 101.378 98.6951
180 100 2 101.693 98.2949 97.6552
181 101 2 102.132 101.958 102.129
182 102 2 99.2082 99.6796 98.7707
183 103 2 102.163 101.313 99.8199
184 104 2 99.8529 101.46 102.209
185 105 2 102.066 97.2614 98.8646
186 106 2 99.491 97.292 99.0401
187 107 2 99.4286 100.497 99.3834
188 108 2 98.7758 102.926 101.929
189 109 2 98.1193 99.6777 101.506
190 110 2 102.31 100.101 97.295
191 111 2 97.5765 101.805 97.8512
192 112 2 101.435 102.924 101.968
193 113 2 96.9649 99.3033 97.213
194 114 2 102.004 99.6117 99.0845
195 115 2 99.8637 101.36 98.175
196 116 2 100.158 100.634 97.4063
197 117 2 97.9687 98.5802 101.7
198 118 2 97.9351 98.7316 100.693
199 119 2 101.327 98.4024 102.119
200 120 2 99.7657 99.3845 101.002
ITEM: TIMESTEP
2000
ITEM: NUMBER OF ATOMS
200
ITEM: BOX BOUNDS pp pp pp
9.6964926610354851e+01 1.0303507338964515e+02
9.7025025090081186e+01 1.0297497490991881e+02
9.7025025090081186e+01 1.0297497490991881e+02
ITEM: ATOMS id mol type x y z
1 1 1 97.1019 99.0285 101.164
2 1 1 102.961 100.19 101.183
3 2 1 99.4597 97.1248 102.686
4 2 1 100.454 96.9272 97.3714
5 3 1 99.1109 99.895 97.6704
6 3 1 100.229 99.4624 97.916
7 4 1 98.1637 100.841 97.5725
8 4 1 98.5781 101.98 97.462
9 5 1 100.102 98.4646 102.088
10 5 1 99.5435 99.5063 102.088
11 6 1 100.356 97.0568 98.4136
12 6 1 100.069 98.0997 98.9898
13 7 1 98.5111 97.4167 97.1521
14 7 1 98.0202 102.425 102.651
15 8 1 101.676 100.493 100.565
16 8 1 101.288 101.625 100.675
17 9 1 100.623 100.726 102.381
18 9 1 101.792 100.94 102.37
19 10 1 97.6861 100.78 99.8468
20 10 1 102.974 101.15 100.664
21 11 1 96.9342 102.685 98.3876
22 11 1 97.7843 97.3377 99.0248
23 12 1 97.1753 102.916 100.713
24 12 1 97.5773 102.821 101.81
25 13 1 102.982 101.129 101.892
26 13 1 102.634 100.023 102.227
27 14 1 98.8349 102.062 100.305
28 14 1 98.6708 102.599 99.2551
29 15 1 97.1986 101.722 99.6541
30 15 1 102.307 102.27 99.2722
31 16 1 100.319 102.338 102.429
32 16 1 100.673 102.48 101.317
33 17 1 98.0543 97.7582 102.226
34 17 1 99.1405 98.132 102.3
35 18 1 101.013 98.7059 99.4222
36 18 1 102.137 98.8065 99.7157
37 19 1 96.9872 102.039 101.338
38 19 1 102.102 101.276 101.314
39 20 1 103.044 97.7987 98.5124
40 20 1 101.998 98.3729 98.7137
41 21 1 99.8604 98.1005 97.1274
42 21 1 98.7375 98.3833 97.4489
43 22 1 99.4489 97.3898 97.7836
44 22 1 98.4164 102.865 98.134
45 23 1 97.6175 97.8389 100.186
46 23 1 97.7626 98.3904 99.0678
47 24 1 102.291 97.9169 102.382
48 24 1 102.158 98.724 101.484
49 25 1 100.354 101.062 99.1733
50 25 1 100.664 100.935 100.241
51 26 1 102.599 102.118 100.389
52 26 1 102.333 97.3165 100.37
53 27 1 101.33 97.1387 97.9977
54 27 1 101.327 102.256 97.1033
55 28 1 98.8877 98.0264 101.245
56 28 1 99.7674 97.3394 101.667
57 29 1 101.292 102.532 98.9916
58 29 1 101.063 97.7613 98.8057
59 30 1 99.6383 102.197 97.3305
60 30 1 98.9932 102.08 102.256
61 31 1 97.1175 99.0691 99.9775
62 31 1 97.4564 99.8886 99.2174
63 32 1 97.3271 100.289 97.1454
64 32 1 97.778 100.565 102.062
65 33 1 101.496 97.464 96.9714
66 33 1 100.486 97.4688 102.427
67 34 1 100.589 97.9609 97.8932
68 34 1 100.801 98.7603 102.979
69 35 1 98.1164 99.4045 97.4152
70 35 1 98.1885 100.049 98.4335
71 36 1 102.664 101.106 102.895
72 36 1 97.0344 102.118 102.445
73 37 1 97.8117 101.708 100.559
74 37 1 98.781 101.358 101.226
75 38 1 97.5786 99.5352 102.385
76 38 1 97.7607 98.4625 102.928
77 39 1 99.3315 102.399 98.3315
78 39 1 98.4241 101.59 98.4136
79 40 1 102.643 98.2978 100.591
80 40 1 101.887 97.6746 101.307
81 41 1 100.081 97.1722 100.651
82 41 1 100.744 97.7217 101.4
83 42 1 99.6074 102.58 99.7905
84 42 1 98.9786 97.1409 100.666
85 43 1 100.429 99.0689 100.233
86 43 1 99.4207 99.5209 99.7937
87 44 1 101.418 99.6083 99.9075
88 44 1 102.367 99.4148 100.601
89 45 1 99.5202 99.0755 97.1088
90 45 1 100.43 99.7442 102.844
91 46 1 102.283 99.1557 98.0052
92 46 1 97.4043 98.8325 97.9704
93 47 1 98.9891 98.631 100.339
94 47 1 98.595 97.6806 99.7049
95 48 1 98.4016 98.8928 98.3408
96 48 1 97.8268 97.9043 97.9143
97 49 1 99.6145 100.432 102.528
98 49 1 98.9934 100.247 101.486
99 50 1 97.6192 100.978 98.7291
100 50 1 98.3202 101.569 99.4972
101 51 1 102.884 100.826 97.9368
102 51 1 101.874 101.383 97.5931
103 52 1 102.864 101.659 98.5936
104 52 1 97.7325 102.247 98.8849
105 53 1 100.521 97.1553 99.5392
106 53 1 100.666 98.0681 100.257
107 54 1 100.568 102.269 100.221
108 54 1 99.7083 101.479 100.082
109 55 1 102.304 102.808 102.738
110 55 1 102.355 97.3153 97.8119
111 56 1 97.4917 102.91 97.4867
112 56 1 102.699 102.093 97.4981
113 57 1 102.007 99.0131 102.721
114 57 1 103.026 98.6758 102.232
115 58 1 102.617 96.9692 101.664
116 58 1 97.124 97.4332 102.576
117 59 1 100.128 99.1708 98.9896
118 59 1 101.06 98.818 98.3211
119 60 1 98.9309 99.0675 101.364
120 60 1 98.58 99.0476 102.478
121 61 1 101.623 99.6319 101.31
122 61 1 100.839 98.7917 101.283
123 62 1 101.876 102.365 101.166
124 62 1 101.599 102.428 100.011
125 63 1 98.669 101.041 102.287
126 63 1 99.2657 101.197 97.3379
127 64 1 101.322 99.5271 97.5399
128 64 1 101.057 99.8485 98.6991
129 65 1 99.0627 100.761 98.3284
130 65 1 100.121 100.265 98.564
131 66 1 98.7129 99.7955 100.553
132 66 1 98.2259 99.1241 99.6601
133 67 1 99.7188 100.416 100.376
134 67 1 100.008 100.529 101.515
135 68 1 98.0409 102.761 100.094
136 68 1 98.3833 102.392 101.187
137 69 1 98.7076 100.922 100.266
138 69 1 97.8634 100.696 101.034
139 70 1 96.991 99.8424 98.2107
140 70 1 102.687 100.706 99.04
141 71 1 101.19 100.569 97.3216
142 71 1 100.503 101.528 97.1601
143 72 1 100.838 102.091 98.0599
144 72 1 101.99 102.258 98.246
145 73 1 99.126 98.6194 99.2347
146 73 1 99.6483 97.8531 99.9702
147 74 1 98.4776 100.119 99.5484
148 74 1 97.6299 99.8539 100.404
149 75 1 101.18 100.639 101.465
150 75 1 100.596 99.6771 101.838
151 76 1 100.396 100.028 99.6305
152 76 1 101.426 100.563 99.4464
153 77 1 101.902 100.46 98.243
154 77 1 100.918 101.079 98.2348
155 78 1 102.836 97.9974 99.5533
156 78 1 101.639 97.8125 99.7477
157 79 1 101.094 101.669 99.5791
158 79 1 100.2 102.167 98.9988
159 80 1 101.104 101.617 101.927
160 80 1 100.291 101.511 101.084
161 81 2 98.6402 100.059 102.691
162 82 2 103.079 102.891 99.5978
163 83 2 101.165 97.2266 100.617
164 84 2 97.7313 101.4 102.773
165 85 2 101.506 98.598 100.543
166 86 2 98.7106 97.9038 98.5723
167 87 2 97.1004 97.8648 101.521
168 88 2 99.4999 102.274 101.313
169 89 2 99.8953 98.357 101.069
170 90 2 99.3414 101.64 99.1168
171 91 2 102.72 100.206 100.005
172 92 2 98.002 97.5573 101.119
173 93 2 97.9247 101.673 101.755
174 94 2 100.729 99.8982 100.819
175 95 2 99.5371 98.5387 98.1894
176 96 2 102.893 98.9313 98.9104
177 97 2 102.836 98.2474 97.3846
178 98 2 101.541 99.9057 102.436
179 99 2 101.736 101.395 98.8029
180 100 2 101.734 98.2211 97.576
181 101 2 102.101 101.985 102.118
182 102 2 99.2292 99.6665 98.7272
183 103 2 102.123 101.335 99.874
184 104 2 99.8158 101.416 102.15
185 105 2 102.139 97.3142 98.9062
186 106 2 99.4852 97.2648 98.9531
187 107 2 99.3766 100.58 99.3489
188 108 2 98.7402 103.036 101.914
189 109 2 98.0481 99.6186 101.498
190 110 2 102.296 100.101 97.2966
191 111 2 97.5572 101.737 97.8202
192 112 2 101.353 102.84 102.05
193 113 2 96.9128 99.2879 97.2041
194 114 2 102.191 99.7139 99.1031
195 115 2 99.9174 101.37 98.1808
196 116 2 100.098 100.513 97.5653
197 117 2 97.9497 98.6132 101.72
198 118 2 97.9865 98.7436 100.623
199 119 2 101.305 98.3006 102.138
200 120 2 99.7975 99.4606 100.979
ITEM: TIMESTEP
3000
ITEM: NUMBER OF ATOMS
200
ITEM: BOX BOUNDS pp pp pp
9.6934423615676209e+01 1.0306557638432379e+02
9.7025025090081186e+01 1.0297497490991881e+02
9.7025025090081186e+01 1.0297497490991881e+02
ITEM: ATOMS id mol type x y z
1 1 1 97.0919 99.1362 101.306
2 1 1 102.946 100.227 101.085
3 2 1 99.4823 97.0881 102.73
4 2 1 100.45 96.9104 97.406
5 3 1 99.1395 100.058 97.7708
6 3 1 100.21 99.4769 97.9229
7 4 1 98.2224 100.811 97.6382
8 4 1 98.6323 101.934 97.3428
9 5 1 100.059 98.52 102.133
10 5 1 99.5141 99.543 102.059
11 6 1 100.394 97.0892 98.4445
12 6 1 100.132 98.0987 99.0853
13 7 1 98.4992 97.4337 97.1742
14 7 1 97.9985 102.456 102.603
15 8 1 101.789 100.489 100.53
16 8 1 101.338 101.609 100.667
17 9 1 100.677 100.689 102.421
18 9 1 101.869 100.803 102.364
19 10 1 97.5328 100.798 99.8639
20 10 1 102.935 101.19 100.704
21 11 1 96.9111 102.666 98.4547
22 11 1 97.7411 97.3252 99.0153
23 12 1 97.1385 103.002 100.635
24 12 1 97.5426 102.803 101.746
25 13 1 103.024 101.032 101.856
26 13 1 102.762 99.8559 102.071
27 14 1 98.7357 101.979 100.23
28 14 1 98.6588 102.59 99.2172
29 15 1 97.1371 101.726 99.6083
30 15 1 102.305 102.26 99.2019
31 16 1 100.382 102.402 102.386
32 16 1 100.724 102.455 101.282
33 17 1 97.9855 97.7534 102.184
34 17 1 99.1002 98.0773 102.4
35 18 1 101.093 98.7421 99.4334
36 18 1 102.204 98.8536 99.7536
37 19 1 96.8431 102.039 101.358
38 19 1 102.102 101.258 101.352
39 20 1 103.054 97.8353 98.5117
40 20 1 102.024 98.4057 98.8248
41 21 1 99.8981 98.2351 97.1478
42 21 1 98.7593 98.4089 97.4692
43 22 1 99.5258 97.4488 97.8603
44 22 1 98.4042 102.835 98.1313
45 23 1 97.6258 97.8472 100.058
46 23 1 97.7785 98.4265 99.0453
47 24 1 102.248 97.8539 102.312
48 24 1 102.229 98.7687 101.588
49 25 1 100.301 101.036 99.2059
50 25 1 100.725 100.885 100.257
51 26 1 102.647 102.138 100.368
52 26 1 102.309 97.2815 100.304
53 27 1 101.34 97.1368 98.0096
54 27 1 101.371 102.297 97.0737
55 28 1 98.8683 98.0098 101.371
56 28 1 99.7527 97.2265 101.668
57 29 1 101.248 102.547 98.9683
58 29 1 101.079 97.7883 98.9043
59 30 1 99.7049 102.053 97.2017
60 30 1 98.9856 102.022 102.158
61 31 1 97.1262 99.0127 99.9251
62 31 1 97.4255 99.9144 99.219
63 32 1 97.3525 100.329 97.1446
64 32 1 97.7754 100.546 102.004
65 33 1 101.483 97.5 96.9936
66 33 1 100.446 97.5435 102.45
67 34 1 100.551 97.9679 97.9247
68 34 1 100.851 98.7416 103.043
69 35 1 98.1742 99.3745 97.3523
70 35 1 98.1398 99.9832 98.3747
71 36 1 102.726 101.142 102.836
72 36 1 97.0202 102.2 102.431
73 37 1 97.7905 101.709 100.524
74 37 1 98.7536 101.34 101.202
75 38 1 97.6286 99.5301 102.371
76 38 1 97.7634 98.4718 102.945
77 39 1 99.4359 102.419 98.2205
78 39 1 98.4834 101.735 98.3821
79 40 1 102.691 98.2909 100.579
80 40 1 101.85 97.7873 101.223
81 41 1 100.08 97.157 100.642
82 41 1 100.739 97.7234 101.435
83 42 1 99.5693 102.569 99.8358
84 42 1 99.0086 97.2443 100.653
85 43 1 100.433 99.0185 100.242
86 43 1 99.4473 99.5783 99.8971
87 44 1 101.457 99.644 100.006
88 44 1 102.411 99.3945 100.66
89 45 1 99.3718 99.2101 97.163
90 45 1 100.426 99.716 102.863
91 46 1 102.384 99.1438 97.9601
92 46 1 97.489 98.9315 97.9742
93 47 1 98.9317 98.6423 100.282
94 47 1 98.6268 97.679 99.645
95 48 1 98.4492 98.9179 98.3436
96 48 1 97.8228 97.9315 97.9462
97 49 1 99.6006 100.483 102.613
98 49 1 98.951 100.333 101.566
99 50 1 97.5588 100.887 98.6492
100 50 1 98.264 101.487 99.425
101 51 1 102.873 100.856 97.8809
102 51 1 101.853 101.424 97.5249
103 52 1 102.885 101.623 98.5563
104 52 1 97.7145 102.226 98.9066
105 53 1 100.514 97.1193 99.5345
106 53 1 100.684 98.0268 100.237
107 54 1 100.536 102.223 100.198
108 54 1 99.6636 101.435 100.237
109 55 1 102.316 102.829 102.765
110 55 1 102.399 97.3444 97.8614
111 56 1 97.4444 102.889 97.524
112 56 1 102.73 102.08 97.4767
113 57 1 102.027 98.9812 102.784
114 57 1 103.027 98.6251 102.276
115 58 1 102.562 97.0056 101.738
116 58 1 97.0786 97.4622 102.621
117 59 1 100.103 99.1497 99.0643
118 59 1 101.031 98.8232 98.3717
119 60 1 98.8887 99.0118 101.296
120 60 1 98.6139 99.0608 102.41
121 61 1 101.583 99.6178 101.268
122 61 1 100.712 98.8168 101.259
123 62 1 101.916 102.338 101.148
124 62 1 101.675 102.418 100.006
125 63 1 98.7217 101.055 102.327
126 63 1 99.2606 101.093 97.4579
127 64 1 101.396 99.5076 97.6346
128 64 1 100.91 99.8243 98.6905
129 65 1 98.8369 100.784 98.6029
130 65 1 99.9227 100.349 98.4628
131 66 1 98.7372 99.862 100.617
132 66 1 98.2961 99.2186 99.6612
133 67 1 99.7625 100.415 100.481
134 67 1 100.018 100.564 101.561
135 68 1 98.0128 102.766 100.039
136 68 1 98.3667 102.456 101.12
137 69 1 98.6687 100.889 100.26
138 69 1 97.7448 100.705 100.964
139 70 1 97.0304 99.8863 98.1719
140 70 1 102.582 100.604 98.9423
141 71 1 101.262 100.529 97.3289
142 71 1 100.613 101.546 97.2003
143 72 1 100.934 101.989 98.1368
144 72 1 102.029 102.309 98.1752
145 73 1 99.1144 98.5707 99.2239
146 73 1 99.6502 97.8361 99.9711
147 74 1 98.3813 100.282 99.4666
148 74 1 97.6438 99.835 100.297
149 75 1 101.19 100.615 101.479
150 75 1 100.61 99.6624 101.863
151 76 1 100.446 99.9709 99.744
152 76 1 101.432 100.555 99.4211
153 77 1 101.931 100.361 98.1456
154 77 1 100.902 100.858 98.3375
155 78 1 102.825 98.0256 99.5362
156 78 1 101.661 97.8808 99.7739
157 79 1 101.117 101.611 99.5308
158 79 1 100.233 102.158 99.0022
159 80 1 101.164 101.672 101.947
160 80 1 100.339 101.49 101.103
161 81 2 98.6349 100.081 102.725
162 82 2 103.069 102.923 99.5695
163 83 2 101.174 97.1673 100.621
164 84 2 97.7414 101.365 102.711
165 85 2 101.514 98.6278 100.556
166 86 2 98.7018 97.8504 98.5962
167 87 2 96.9696 97.9188 101.501
168 88 2 99.4975 102.265 101.126
169 89 2 99.8131 98.2416 101.018
170 90 2 99.2871 101.604 99.2133
171 91 2 102.702 100.092 99.9278
172 92 2 97.919 97.6271 101.088
173 93 2 97.8845 101.707 101.677
174 94 2 100.688 99.9107 100.82
175 95 2 99.518 98.5567 98.2271
176 96 2 102.951 98.9825 98.8838
177 97 2 102.898 98.3235 97.4439
178 98 2 101.512 99.815 102.406
179 99 2 101.737 101.414 98.702
180 100 2 101.787 98.272 97.6674
181 101 2 102.167 101.919 102.204
182 102 2 99.1696 99.6946 98.8475
183 103 2 102.2 101.319 99.8355
184 104 2 99.9299 101.406 102.248
185 105 2 102.134 97.2957 98.93
186 106 2 99.4795 97.2266 98.963
187 107 2 99.4252 100.539 99.4881
188 108 2 98.718 102.978 101.982
189 109 2 98.0237 99.6613 101.443
190 110 2 102.354 100.105 97.1938
191 111 2 97.5636 101.699 97.7854
192 112 2 101.403 102.899 102.018
193 113 2 96.9438 99.3372 97.1825
194 114 2 102.043 99.5947 99.0255
195 115 2 99.9779 101.371 98.2151
196 116 2 100.195 100.544 97.4739
197 117 2 97.9279 98.6597 101.714
198 118 2 97.9097 98.7826 100.652
199 119 2 101.279 98.4203 102.092
200 120 2 99.795 99.3967 101.031
ITEM: TIMESTEP
4000
ITEM: NUMBER OF ATOMS
200
ITEM: BOX BOUNDS pp pp pp
9.6903614060804472e+01 1.0309638593919553e+02
9.7025025090081186e+01 1.0297497490991881e+02
9.7025025090081186e+01 1.0297497490991881e+02
ITEM: ATOMS id mol type x y z
1 1 1 97.0625 99.0217 101.217
2 1 1 103.041 100.2 101.187
3 2 1 99.4576 97.03 102.653
4 2 1 100.445 102.937 97.3714
5 3 1 99.1568 99.9344 97.737
6 3 1 100.294 99.4204 97.9096
7 4 1 98.1829 100.83 97.6593
8 4 1 98.5756 101.967 97.3918
9 5 1 100.113 98.5763 102.17
10 5 1 99.4586 99.5407 102.036
11 6 1 100.404 97.0548 98.455
12 6 1 100.107 98.1223 99.0094
13 7 1 98.5644 97.3312 97.2128
14 7 1 98.0354 102.441 102.527
15 8 1 101.791 100.501 100.504
16 8 1 101.364 101.586 100.715
17 9 1 100.669 100.655 102.379
18 9 1 101.876 100.826 102.393
19 10 1 97.5908 100.801 99.873
20 10 1 103.024 101.163 100.672
21 11 1 103.119 102.714 98.3616
22 11 1 97.7681 97.4105 98.9636
23 12 1 97.0201 97.052 100.686
24 12 1 97.5143 102.869 101.741
25 13 1 103.11 101.116 101.82
26 13 1 102.707 100.069 102.236
27 14 1 98.8004 102.059 100.284
28 14 1 98.6489 102.661 99.2581
29 15 1 97.1319 101.756 99.6581
30 15 1 102.352 102.271 99.2227
31 16 1 100.37 102.342 102.387
32 16 1 100.753 102.411 101.259
33 17 1 97.9698 97.7238 102.328
34 17 1 99.0961 98.1505 102.325
35 18 1 101.067 98.7098 99.4323
36 18 1 102.166 98.812 99.7896
37 19 1 103.04 102.061 101.331
38 19 1 102.169 101.219 101.332
39 20 1 103.083 97.871 98.5183
40 20 1 101.997 98.4153 98.7775
41 21 1 99.8262 98.0434 97.1317
42 21 1 98.6845 98.3863 97.3606
43 22 1 99.4701 97.2896 97.8122
44 22 1 98.3744 102.773 98.1591
45 23 1 97.5688 97.8759 100.003
46 23 1 97.7856 98.4881 99.0221
47 24 1 102.275 97.9042 102.347
48 24 1 102.263 98.79 101.542
49 25 1 100.297 101.034 99.1426
50 25 1 100.765 100.942 100.203
51 26 1 102.612 102.126 100.344
52 26 1 102.318 97.2841 100.257
53 27 1 101.342 97.1685 97.9321
54 27 1 101.374 102.293 97.066
55 28 1 98.8158 98.0288 101.265
56 28 1 99.6757 97.2591 101.587
57 29 1 101.332 102.548 98.9255
58 29 1 101.1 97.7795 98.7702
59 30 1 99.6567 102.052 97.2531
60 30 1 98.9396 102.056 102.147
61 31 1 97.0389 99.0348 100.005
62 31 1 97.4049 99.8362 99.2568
63 32 1 97.3037 100.302 97.1702
64 32 1 97.7587 100.53 102.06
65 33 1 101.411 97.5497 102.88
66 33 1 100.382 97.5156 102.339
67 34 1 100.519 97.9818 97.9297
68 34 1 100.843 98.7568 97.0804
69 35 1 98.0442 99.4315 97.4184
70 35 1 98.1444 100.005 98.4452
71 36 1 102.75 101.123 102.814
72 36 1 97.017 102.207 102.404
73 37 1 97.7736 101.739 100.551
74 37 1 98.7108 101.37 101.214
75 38 1 97.5528 99.527 102.368
76 38 1 97.7076 98.4795 102.953
77 39 1 99.3666 102.381 98.3604
78 39 1 98.3886 101.702 98.4417
79 40 1 102.688 98.2256 100.681
80 40 1 101.857 97.7085 101.257
81 41 1 100.065 97.0944 100.617
82 41 1 100.699 97.7749 101.377
83 42 1 99.5982 102.557 99.8386
84 42 1 98.982 97.2175 100.6
85 43 1 100.492 99.0901 100.213
86 43 1 99.4455 99.5016 99.8289
87 44 1 101.43 99.6149 99.9643
88 44 1 102.432 99.3636 100.629
89 45 1 99.4431 99.0714 97.0681
90 45 1 100.423 99.6925 102.855
91 46 1 102.428 99.1234 98.0565
92 46 1 97.4271 98.9041 98.0396
93 47 1 98.9875 98.6362 100.324
94 47 1 98.6057 97.7255 99.6451
95 48 1 98.4409 98.9227 98.2584
96 48 1 97.814 97.9368 97.9101
97 49 1 99.5876 100.378 102.586
98 49 1 98.8704 100.341 101.634