ITEM: TIMESTEP
0
ITEM: NUMBER OF ATOMS
200
ITEM: BOX BOUNDS pp pp pp
9.7016265948899743e+01 1.0298373405110026e+02
9.7016265948899743e+01 1.0298373405110026e+02
9.7016265948899743e+01 1.0298373405110026e+02
ITEM: ATOMS id mol type x y z
1 1 1 101.421 99.1594 101.177
2 1 1 101.982 98.241 100.635
3 2 1 99.1973 98.7658 98.9332
4 2 1 100.111 98.1431 98.6567
5 3 1 99.3756 101.388 98.0462
6 3 1 100.294 100.669 97.9124
7 4 1 98.5171 100.535 102.517
8 4 1 98.4065 100.818 97.7061
9 5 1 99.7698 99.781 102.307
10 5 1 98.5876 99.4759 102.223
11 6 1 99.5172 97.0232 101.009
12 6 1 100.121 102.065 101.511
13 7 1 98.7349 102.898 101.769
14 7 1 99.071 97.9644 102.304
15 8 1 102.566 98.8218 99.8912
16 8 1 101.647 99.5015 100.167
17 9 1 101.111 102.184 97.1636
18 9 1 101.342 97.3681 97.0633
19 10 1 102.198 98.3958 98.818
20 10 1 102.649 99.4958 98.9953
21 11 1 97.4933 97.78 99.2722
22 11 1 98.4244 98.0131 98.5951
23 12 1 97.289 98.1495 102.178
24 12 1 97.0215 98.4657 101.108
25 13 1 97.746 101.404 97.0392
26 13 1 98.266 101.334 101.907
27 14 1 101.259 102.192 101.37
28 14 1 100.618 101.434 100.768
29 15 1 98.5678 101.936 99.142
30 15 1 98.322 101.846 97.9935
31 16 1 101.621 97.1905 100.987
32 16 1 100.973 102.42 100.308
33 17 1 102.689 97.4764 101.237
34 17 1 97.3113 98.0184 100.257
35 18 1 101.349 97.3872 100.012
36 18 1 101.595 98.4753 99.6494
37 19 1 101.815 97.9319 97.8697
38 19 1 102.596 97.0931 97.5609
39 20 1 100.188 98.6932 97.7629
40 20 1 99.8537 97.8264 97.0678
41 21 1 98.721 99.8194 97.2653
42 21 1 99.2291 98.7834 102.948
43 22 1 98.7922 97.0577 98.2549
44 22 1 99.2571 98.1819 97.9751
45 23 1 98.0682 102.879 98.9867
46 23 1 97.5976 97.5683 98.1681
47 24 1 101.152 98.0504 101.373
48 24 1 99.9266 98.0045 101.506
49 25 1 99.1266 100.423 99.9417
50 25 1 99.8979 100.453 99.0435
51 26 1 97.0646 102.824 99.4016
52 26 1 102.353 102.726 100.396
53 27 1 100.986 98.3571 97.1562
54 27 1 101.914 98.9998 102.862
55 28 1 98.5372 102.75 100.696
56 28 1 99.1724 97.7251 100.26
57 29 1 97.5164 101.925 99.0554
58 29 1 102.429 102.239 98.5394
59 30 1 99.3264 102.348 97.6112
60 30 1 98.1454 102.786 97.4424
61 31 1 101.53 97.5019 98.8635
62 31 1 100.665 98.0234 99.5497
63 32 1 99.4098 101.16 101.961
64 32 1 100.308 100.578 101.478
65 33 1 97.1822 99.2473 101.998
66 33 1 98.1111 98.609 101.595
67 34 1 99.85 99.6233 97.4007
68 34 1 100.881 99.469 102.803
69 35 1 97.2563 101.751 101.919
70 35 1 102.583 101.37 102.733
71 36 1 98.1592 102.291 102.476
72 36 1 97.4981 102.662 101.528
73 37 1 99.0699 97.102 102.907
74 37 1 99.8148 97.083 102.052
75 38 1 98.4855 100.904 100.879
76 38 1 97.3645 100.986 101.194
77 39 1 100.285 101.418 98.6852
78 39 1 99.6316 101.434 99.6908
79 40 1 99.4552 98.6973 100.688
80 40 1 98.8794 97.8741 101.257
81 41 1 100.857 102.63 102.227
82 41 1 101.794 97.3899 102.014
83 42 1 99.8577 102.157 100.482
84 42 1 99.0204 101.966 101.317
85 43 1 100.366 99.0471 101.317
86 43 1 101.17 98.7161 102.147
87 44 1 100.543 99.0334 99.1214
88 44 1 99.7154 98.4192 99.7325
89 45 1 100.578 100.458 102.761
90 45 1 101.504 101.143 97.0861
91 46 1 100.833 100.051 98.5944
92 46 1 101.593 99.3618 99.0871
93 47 1 100.243 102.255 99.4255
94 47 1 100.168 97.2546 100.084
95 48 1 97.2756 98.6801 98.7885
96 48 1 97.9749 98.6729 97.7812
97 49 1 102.343 101.258 101.526
98 49 1 102.831 100.147 101.435
99 50 1 97.7071 99.6287 102.854
100 50 1 98.1744 98.5908 102.669
101 51 1 97.4221 100.447 97.4626
102 51 1 97.1246 101.481 98.0068
103 52 1 97.6804 99.9599 99.241
104 52 1 102.93 100.435 98.4365
105 53 1 99.7667 97.2624 97.9938
106 53 1 99.4741 102.283 98.6595
107 54 1 100.861 101.531 99.7804
108 54 1 100.171 100.634 100.144
109 55 1 102.931 97.1118 102.3
110 55 1 97.4371 97.7343 97.1876
111 56 1 98.137 99.9265 98.2277
112 56 1 98.9391 99.1163 97.9667
113 57 1 102.358 100.792 97.5802
114 57 1 102.607 99.9554 102.782
115 58 1 102.842 98.241 97.9052
116 58 1 102.087 99.1167 97.9149
117 59 1 100.265 102.799 97.0885
118 59 1 100.64 97.7002 102.291
119 60 1 98.1991 97.3737 99.9301
120 60 1 98.2607 98.4262 100.568
121 61 1 101.299 101.083 101.443
122 61 1 101.411 100.772 100.306
123 62 1 102.522 100.883 100.414
124 62 1 102.973 100.988 99.3153
125 63 1 97.3798 102.95 100.508
126 63 1 102.905 101.879 100.861
127 64 1 101.672 100.057 97.2589
128 64 1 101.029 99.3157 97.9171
129 65 1 98.2101 99.0676 98.8599
130 65 1 98.7968 99.2418 99.9507
131 66 1 101.828 100.237 101.12
132 66 1 102.421 99.2816 100.911
133 67 1 101.077 100.011 101.892
134 67 1 100.833 99.9435 100.766
135 68 1 97.6916 101.085 100.162
136 68 1 97.9936 101.886 100.992
137 69 1 98.6342 99.3835 100.992
138 69 1 97.9793 100.175 101.61
139 70 1 102.154 101.217 98.5508
140 70 1 102.111 101.895 97.5857
141 71 1 101.239 100.888 99.0567
142 71 1 101.156 101.468 98.0091
143 72 1 100.754 97.5995 97.9232
144 72 1 101.648 102.791 98.0315
145 73 1 98.5386 98.2796 99.5773
146 73 1 99.3504 97.5749 99.0518
147 74 1 102.892 99.8945 100.082
148 74 1 98.1381 100.091 100.244
149 75 1 101.667 101.783 102.212
150 75 1 101.919 100.603 102.217
151 76 1 100.626 99.0454 100.21
152 76 1 99.7498 99.573 99.6192
153 77 1 98.9252 99.855 99.009
154 77 1 98.979 101.001 98.9605
155 78 1 101.96 102.674 99.4322
156 78 1 102.79 101.884 99.8606
157 79 1 101.913 101.508 99.5464
158 79 1 101.258 102.171 98.7924
159 80 1 102.036 102.609 102.711
160 80 1 97.2012 102.314 97.0281
161 81 2 99.1976 100.229 101.518
162 82 2 97.9016 102.233 99.9765
163 83 2 101.767 101.714 100.596
164 84 2 98.9104 101.557 102.956
165 85 2 100.467 98.0844 100.601
166 86 2 98.4876 97.8394 97.3645
167 87 2 102.19 98.4207 101.81
168 88 2 100.55 97.1691 101.179
169 89 2 99.1642 102.662 99.741
170 90 2 99.4875 101.087 100.837
171 91 2 102.42 97.6713 99.7132
172 92 2 98.7608 101.682 100.191
173 93 2 98.0197 97.3886 102.377
174 94 2 100.874 100.015 99.6081
175 95 2 99.482 100.724 97.0622
176 96 2 101.137 98.4201 98.517
177 97 2 102.957 98.8111 97.0509
178 98 2 100.587 101.484 102.322
179 99 2 97.9424 100.928 98.6318
180 100 2 100.094 98.7341 102.379
181 101 2 102.349 97.9195 102.809
182 102 2 97.6589 99.0207 99.8567
183 103 2 102.03 100.327 99.4986
184 104 2 97.4261 102.519 98.1763
185 105 2 102.544 97.3979 98.6261
186 106 2 100.522 97.1659 98.9087
187 107 2 99.7431 99.6843 100.658
188 108 2 97.8499 97.5993 101.279
189 109 2 97.5633 99.3073 100.906
190 110 2 101.881 100.081 98.419
191 111 2 97.152 99.4042 97.9455
192 112 2 102.305 102.363 101.557
193 113 2 97.3572 100.639 102.34
194 114 2 99.8772 99.4515 98.4451
195 115 2 100.467 102.426 98.0843
196 116 2 99.2983 100.26 98.0654
197 117 2 99.6816 102.114 102.493
198 118 2 100.188 101.635 97.3887
199 119 2 99.2447 98.9204 101.718
200 120 2 102.117 99.4571 101.935
ITEM: TIMESTEP
1000
ITEM: NUMBER OF ATOMS
200
ITEM: BOX BOUNDS pp pp pp
9.6986278923151460e+01 1.0301372107684854e+02
9.7016265948899743e+01 1.0298373405110026e+02
9.7016265948899743e+01 1.0298373405110026e+02
ITEM: ATOMS id mol type x y z
1 1 1 101.437 99.064 101.111
2 1 1 102.094 98.0892 100.702
3 2 1 99.2068 98.7944 98.9756
4 2 1 100.079 98.1067 98.6715
5 3 1 99.4676 101.347 98.1035
6 3 1 100.524 100.852 97.7469
7 4 1 98.5895 100.545 102.466
8 4 1 98.3967 100.79 97.6634
9 5 1 99.701 99.8145 102.298
10 5 1 98.5032 99.4594 102.223
11 6 1 99.5285 97.0569 101.04
12 6 1 100.197 102.087 101.519
13 7 1 98.7153 102.884 101.778
14 7 1 99.1036 97.9148 102.27
15 8 1 102.579 98.8657 99.7561
16 8 1 101.649 99.4856 100.181
17 9 1 101.172 102.139 97.2653
18 9 1 101.306 97.335 97.0875
19 10 1 102.197 98.5182 98.7639
20 10 1 102.666 99.5795 99.005
21 11 1 97.5106 97.8376 99.2532
22 11 1 98.4048 98.2234 98.5249
23 12 1 97.2284 98.1936 102.108
24 12 1 97.0305 98.4757 101.037
25 13 1 97.7676 101.4 96.9838
26 13 1 98.2668 101.354 101.897
27 14 1 101.292 102.11 101.393
28 14 1 100.618 101.443 100.715
29 15 1 98.6193 101.942 99.0586
30 15 1 98.2272 101.868 97.9232
31 16 1 101.598 97.0689 101.028
32 16 1 100.888 102.412 100.299
33 17 1 102.748 97.4628 101.357
34 17 1 97.1579 97.8353 100.259
35 18 1 101.331 97.3824 100.059
36 18 1 101.578 98.4543 99.6918
37 19 1 101.792 97.9295 97.841
38 19 1 102.673 97.1815 97.5784
39 20 1 100.209 98.6375 97.7795
40 20 1 99.8254 97.7835 97.0499
41 21 1 98.7495 99.7932 97.2349
42 21 1 99.1834 98.7265 102.977
43 22 1 98.7607 97.1626 98.2446
44 22 1 99.2833 98.1862 97.9865
45 23 1 98.0715 102.886 99.0271
46 23 1 97.5876 97.6665 98.2185
47 24 1 101.166 98.0046 101.309
48 24 1 99.9839 98.0406 101.51
49 25 1 99.1434 100.459 99.9612
50 25 1 99.9366 100.45 99.0218
51 26 1 97.088 102.867 99.4558
52 26 1 102.438 102.966 100.405
53 27 1 100.988 98.3463 97.1412
54 27 1 101.89 99.0444 102.816
55 28 1 98.5512 102.719 100.749
56 28 1 99.1097 97.7171 100.286
57 29 1 97.4935 101.94 98.9901
58 29 1 102.458 102.21 98.6126
59 30 1 99.2328 102.353 97.6485
60 30 1 98.0519 102.811 97.4282
61 31 1 101.495 97.4718 98.825
62 31 1 100.675 97.9279 99.5299
63 32 1 99.4512 101.083 102.008
64 32 1 100.276 100.431 101.486
65 33 1 97.2384 99.2749 102.028
66 33 1 98.0868 98.6298 101.608
67 34 1 99.7922 99.5718 97.3823
68 34 1 100.862 99.419 102.888
69 35 1 97.2893 101.742 101.954
70 35 1 102.608 101.213 102.671
71 36 1 98.0904 102.294 102.452
72 36 1 97.4846 102.657 101.543
73 37 1 98.9572 97.0356 102.853
74 37 1 99.7871 97.1321 102.026
75 38 1 98.4971 100.93 100.934
76 38 1 97.3902 100.979 101.24
77 39 1 100.392 101.402 98.7027
78 39 1 99.7061 101.36 99.7222
79 40 1 99.4338 98.6787 100.7
80 40 1 98.85 97.8982 101.271
81 41 1 100.897 102.568 102.237
82 41 1 101.817 97.3508 102.02
83 42 1 99.79 102.143 100.432
84 42 1 99.0752 101.934 101.364
85 43 1 100.371 99.0185 101.312
86 43 1 101.168 98.688 102.092
87 44 1 100.57 98.9774 99.1743
88 44 1 99.7513 98.3956 99.76
89 45 1 100.547 100.446 102.594
90 45 1 101.377 101.095 97.1471
91 46 1 100.807 100.118 98.5387
92 46 1 101.554 99.3722 99.0789
93 47 1 100.238 102.219 99.4298
94 47 1 99.991 97.2007 100.021
95 48 1 97.2457 98.7328 98.733
96 48 1 97.9011 98.7198 97.7193
97 49 1 102.317 101.228 101.546
98 49 1 102.834 100.135 101.502
99 50 1 97.72 99.6201 102.945
100 50 1 98.1301 98.5306 102.647
101 51 1 97.3182 100.509 97.4266
102 51 1 97.0957 101.508 97.9381
103 52 1 97.6142 100.019 99.3297
104 52 1 103.012 100.425 98.4383
105 53 1 99.775 97.2539 97.956
106 53 1 99.538 102.299 98.6623
107 54 1 100.934 101.517 99.7208
108 54 1 100.273 100.6 100.195
109 55 1 102.966 97.144 102.364
110 55 1 97.4567 97.8245 97.1884
111 56 1 98.0735 99.9393 98.1788
112 56 1 98.9035 99.1315 97.9956
113 57 1 102.319 100.772 97.5692
114 57 1 102.655 99.9741 102.741
115 58 1 102.838 98.2724 97.8904
116 58 1 102.055 99.1463 97.8732
117 59 1 100.281 102.804 97.0722
118 59 1 100.704 97.6853 102.247
119 60 1 98.1605 97.3652 99.9917
120 60 1 98.1359 98.4258 100.546
121 61 1 101.22 101.036 101.518
122 61 1 101.418 100.793 100.32
123 62 1 102.531 100.987 100.419
124 62 1 103.051 101.01 99.3229
125 63 1 97.4076 102.852 100.547
126 63 1 102.891 101.866 100.91
127 64 1 101.631 100.034 97.2441
128 64 1 101.003 99.2894 97.9682
129 65 1 98.1886 99.1676 98.8344
130 65 1 98.8361 99.2213 99.9217
131 66 1 101.772 100.241 101.118
132 66 1 102.49 99.3267 100.844
133 67 1 101.034 99.7661 101.899
134 67 1 100.821 99.9033 100.759
135 68 1 97.6417 101.144 100.197
136 68 1 97.9411 101.867 101.039
137 69 1 98.6305 99.326 100.977
138 69 1 98.0594 100.181 101.61
139 70 1 102.295 101.197 98.5402
140 70 1 102.173 101.866 97.5689
141 71 1 101.315 100.885 99.0312
142 71 1 101.288 101.513 98.0891
143 72 1 100.77 97.6089 97.9566
144 72 1 101.725 102.82 97.9905
145 73 1 98.4424 98.3066 99.5327
146 73 1 99.279 97.5909 99.1107
147 74 1 102.938 100.045 100.166
148 74 1 98.1519 100.076 100.25
149 75 1 101.725 101.748 102.316
150 75 1 101.828 100.524 102.269
151 76 1 100.695 99.0055 100.233
152 76 1 99.8153 99.5469 99.6445
153 77 1 98.9195 99.8644 99.0596
154 77 1 98.9844 100.967 98.9956
155 78 1 102.036 102.697 99.4538
156 78 1 102.912 101.946 99.8817
157 79 1 102.03 101.568 99.4654
158 79 1 101.22 102.259 98.8497
159 80 1 102.057 102.633 102.815
160 80 1 97.1204 102.226 97.0533
161 81 2 99.1594 100.111 101.473
162 82 2 97.9645 102.234 99.9663
163 83 2 101.841 101.954 100.444
164 84 2 98.8893 101.561 102.924
165 85 2 100.452 98.0178 100.587
166 86 2 98.48 97.8341 97.3805
167 87 2 102.15 98.389 101.804
168 88 2 100.589 97.113 101.213
169 89 2 99.1115 102.628 99.7157
170 90 2 99.5663 101.06 100.906
171 91 2 102.37 97.7231 99.5953
172 92 2 98.8374 101.659 100.233
173 93 2 97.9953 97.4702 102.316
174 94 2 100.887 100.034 99.5989
175 95 2 99.5148 100.701 97.164
176 96 2 101.146 98.3919 98.5527
177 97 2 102.935 98.8593 97.0197
178 98 2 100.557 101.528 102.366
179 99 2 97.9196 100.911 98.6211
180 100 2 100.09 98.7291 102.379
181 101 2 102.377 97.9297 102.779
182 102 2 97.6382 99.1275 99.8486
183 103 2 102.047 100.4 99.5961
184 104 2 97.3335 102.574 98.1818
185 105 2 102.621 97.4235 98.6117
186 106 2 100.405 97.1126 98.9221
187 107 2 99.7304 99.658 100.655
188 108 2 97.8356 97.6149 101.207
189 109 2 97.5436 99.3855 100.979
190 110 2 101.96 100.06 98.4156
191 111 2 97.0456 99.4258 97.9327
192 112 2 102.353 102.341 101.688
193 113 2 97.4379 100.606 102.339
194 114 2 99.8911 99.403 98.4617
195 115 2 100.454 102.39 98.0864
196 116 2 99.2405 100.181 98.0739
197 117 2 99.5946 102.15 102.407
198 118 2 100.079 101.741 97.2903
199 119 2 99.2594 98.9273 101.718
200 120 2 102.155 99.4333 101.883
ITEM: TIMESTEP
2000
ITEM: NUMBER OF ATOMS
200
ITEM: BOX BOUNDS pp pp pp
9.6955990522784063e+01 1.0304400947721594e+02
9.7016265948899743e+01 1.0298373405110026e+02
9.7016265948899743e+01 1.0298373405110026e+02
ITEM: ATOMS id mol type x y z
1 1 1 101.51 99.0314 101.065
2 1 1 102.166 98.1275 100.699
3 2 1 99.1905 98.773 98.9173
4 2 1 100.109 98.1034 98.6179
5 3 1 99.4297 101.396 98.1379
6 3 1 100.385 100.718 97.8298
7 4 1 98.5432 100.58 102.445
8 4 1 98.4456 100.793 97.6804
9 5 1 99.6166 99.8767 102.363
10 5 1 98.4836 99.4801 102.154
11 6 1 99.5338 97.0381 101.044
12 6 1 100.194 102.106 101.53
13 7 1 98.6798 102.891 101.801
14 7 1 98.9282 98.0097 102.285
15 8 1 102.611 98.8267 99.8665
16 8 1 101.677 99.5112 100.161
17 9 1 101.113 102.101 97.1793
18 9 1 101.377 97.3068 97.1184
19 10 1 102.224 98.4956 98.7956
20 10 1 102.677 99.579 98.9818
21 11 1 97.4809 97.8742 99.2205
22 11 1 98.4489 98.0709 98.5541
23 12 1 97.2041 98.1839 102.224
24 12 1 97.0191 98.4491 101.131
25 13 1 97.6452 101.415 96.9675
26 13 1 98.2667 101.426 101.91
27 14 1 101.341 102.137 101.358
28 14 1 100.597 101.46 100.76
29 15 1 98.5775 101.892 99.094
30 15 1 98.211 101.862 97.9577
31 16 1 101.65 97.1554 101.012
32 16 1 100.951 102.493 100.267
33 17 1 102.739 97.4085 101.316
34 17 1 97.1603 97.8322 100.284
35 18 1 101.462 97.4086 100.019
36 18 1 101.566 98.5215 99.6948
37 19 1 101.854 97.904 97.9271
38 19 1 102.666 97.1167 97.5465
39 20 1 100.272 98.6978 97.7038
40 20 1 99.785 97.8643 96.9761
41 21 1 98.6752 99.8255 97.2234
42 21 1 99.1961 98.7982 102.979
43 22 1 98.7371 97.1347 98.183
44 22 1 99.2774 98.2031 97.9457
45 23 1 98.1027 102.866 98.9704
46 23 1 97.5893 97.5734 98.1524
47 24 1 101.188 98.0404 101.352
48 24 1 99.9702 98.0002 101.478
49 25 1 99.1618 100.414 100.041
50 25 1 99.9277 100.489 99.0939
51 26 1 97.0288 102.858 99.3853
52 26 1 102.522 102.864 100.431
53 27 1 101.06 98.356 97.0962
54 27 1 101.966 99.0683 102.764
55 28 1 98.5397 102.802 100.769
56 28 1 99.0965 97.7703 100.199
57 29 1 97.5036 101.907 99.0204
58 29 1 102.509 102.236 98.5931
59 30 1 99.2217 102.324 97.6096
60 30 1 98.049 102.785 97.4339
61 31 1 101.507 97.3442 98.8922
62 31 1 100.688 97.9683 99.498
63 32 1 99.4027 101.096 102.056
64 32 1 100.301 100.543 101.529
65 33 1 97.2141 99.3036 101.981
66 33 1 98.0995 98.6101 101.615
67 34 1 99.8273 99.6645 97.434
68 34 1 100.897 99.3902 102.967
69 35 1 97.2355 101.724 101.974
70 35 1 102.589 101.155 102.606
71 36 1 98.0294 102.311 102.465
72 36 1 97.3693 102.671 101.588
73 37 1 98.9337 97.0672 102.885
74 37 1 99.772 97.1447 102.089
75 38 1 98.5105 100.893 100.824
76 38 1 97.3737 101.02 101.188
77 39 1 100.403 101.39 98.7644
78 39 1 99.672 101.347 99.7339
79 40 1 99.4777 98.6698 100.703
80 40 1 98.8839 97.8305 101.264
81 41 1 100.925 102.539 102.22
82 41 1 101.782 97.4277 102.044
83 42 1 99.8599 102.177 100.495
84 42 1 99.0751 101.971 101.355
85 43 1 100.4 99.0352 101.296
86 43 1 101.24 98.7431 102.083
87 44 1 100.619 99.0359 99.1484
88 44 1 99.7784 98.4116 99.7215
89 45 1 100.513 100.407 102.704
90 45 1 101.426 101.053 97.1603
91 46 1 100.796 100.111 98.6049
92 46 1 101.627 99.3778 99.0423
93 47 1 100.131 102.213 99.4565
94 47 1 100.052 97.2481 100.049
95 48 1 97.191 98.7825 98.7334
96 48 1 97.8109 98.7017 97.7407
97 49 1 102.37 101.2 101.457
98 49 1 102.924 100.159 101.462
99 50 1 97.6487 99.6609 102.912
100 50 1 98.1042 98.6186 102.65
101 51 1 97.4052 100.484 97.4546
102 51 1 97.0799 101.509 97.9904
103 52 1 97.6007 99.9441 99.2402
104 52 1 103.025 100.494 98.4319
105 53 1 99.7447 97.2443 97.9336
106 53 1 99.4361 102.374 98.6738
107 54 1 100.948 101.58 99.7329
108 54 1 100.286 100.635 100.213
109 55 1 102.89 97.1585 102.382
110 55 1 97.403 97.8004 97.1987
111 56 1 97.9857 99.9192 98.229
112 56 1 98.8387 99.1527 98.0014
113 57 1 102.409 100.762 97.5858
114 57 1 102.709 100.008 102.664
115 58 1 102.884 98.2354 97.9251
116 58 1 102.069 99.084 97.8654
117 59 1 100.273 102.806 97.1041
118 59 1 100.703 97.6878 102.279
119 60 1 98.113 97.3581 99.914
120 60 1 98.227 98.3724 100.616
121 61 1 101.275 101.072 101.449
122 61 1 101.401 100.871 100.297
123 62 1 102.544 100.907 100.403
124 62 1 103.068 100.952 99.3549
125 63 1 97.4746 102.894 100.607
126 63 1 102.935 101.91 100.879
127 64 1 101.685 100.005 97.189
128 64 1 101.067 99.3408 98.0112
129 65 1 98.2075 99.0921 98.9075
130 65 1 98.8462 99.2445 99.9504
131 66 1 101.858 100.27 101.05
132 66 1 102.527 99.3259 100.817
133 67 1 101.04 99.8143 101.928
134 67 1 100.823 99.9349 100.797
135 68 1 97.6817 101.094 100.136
136 68 1 97.9435 101.917 101.01
137 69 1 98.6376 99.3954 100.984
138 69 1 98.0068 100.234 101.51
139 70 1 102.214 101.212 98.5357
140 70 1 102.184 101.83 97.5117
141 71 1 101.302 100.886 99.0605
142 71 1 101.29 101.529 98.0793
143 72 1 100.8 97.5399 97.9759
144 72 1 101.707 102.712 98.007
145 73 1 98.4556 98.2895 99.5608
146 73 1 99.3233 97.5966 99.071
147 74 1 102.99 99.9892 100.1
148 74 1 98.1237 100.067 100.207
149 75 1 101.715 101.689 102.302
150 75 1 101.819 100.508 102.224
151 76 1 100.664 99.0367 100.226
152 76 1 99.811 99.5656 99.6255
153 77 1 98.8935 99.8 99.0538
154 77 1 98.9907 100.958 99.0387
155 78 1 102.067 102.633 99.4883
156 78 1 102.938 101.916 99.8378
157 79 1 102.032 101.565 99.487
158 79 1 101.24 102.209 98.8919
159 80 1 102.041 102.571 102.732
160 80 1 97.0318 102.234 97.0743
161 81 2 99.1465 100.21 101.48
162 82 2 97.8968 102.244 99.9519
163 83 2 101.903 101.897 100.493
164 84 2 98.8281 101.613 102.934
165 85 2 100.528 98.0547 100.554
166 86 2 98.4724 97.8965 97.3738
167 87 2 102.226 98.3736 101.799
168 88 2 100.585 97.1088 101.22
169 89 2 99.0563 102.644 99.7719
170 90 2 99.5149 101.115 100.922
171 91 2 102.421 97.6733 99.6227
172 92 2 98.7949 101.692 100.232
173 93 2 97.9296 97.383 102.357
174 94 2 100.912 100.056 99.6347
175 95 2 99.44 100.71 97.1703
176 96 2 101.168 98.3907 98.5276
177 97 2 102.99 98.8974 97.0521
178 98 2 100.539 101.415 102.362
179 99 2 97.9405 100.916 98.6073
180 100 2 100.178 98.7502 102.298
181 101 2 102.362 97.9538 102.852
182 102 2 97.5744 99.0251 99.8639
183 103 2 102.067 100.388 99.5432
184 104 2 97.3093 102.583 98.2005
185 105 2 102.591 97.4062 98.5986
186 106 2 100.389 97.0845 98.9004
187 107 2 99.742 99.6928 100.681
188 108 2 97.8095 97.6075 101.312
189 109 2 97.5563 99.3598 100.912
190 110 2 101.904 100.099 98.3543
191 111 2 96.9821 99.4569 97.9173
192 112 2 102.342 102.369 101.645
193 113 2 97.4167 100.606 102.301
194 114 2 99.9102 99.3703 98.4353
195 115 2 100.393 102.34 98.0494
196 116 2 99.236 100.204 98.1519
197 117 2 99.6211 102.112 102.451
198 118 2 100.107 101.599 97.3121
199 119 2 99.2685 98.8866 101.754
200 120 2 102.185 99.4431 101.826
ITEM: TIMESTEP
3000
ITEM: NUMBER OF ATOMS
200
ITEM: BOX BOUNDS pp pp pp
9.6925397718932246e+01 1.0307460228106775e+02
9.7016265948899743e+01 1.0298373405110026e+02
9.7016265948899743e+01 1.0298373405110026e+02
ITEM: ATOMS id mol type x y z
1 1 1 101.484 99.1326 101.12
2 1 1 102.115 98.2282 100.654
3 2 1 99.2017 98.724 98.9442
4 2 1 100.148 98.1211 98.6812
5 3 1 99.3956 101.369 98.0732
6 3 1 100.364 100.726 97.8524
7 4 1 98.5332 100.568 102.51
8 4 1 98.4608 100.8 97.7252
9 5 1 99.5851 99.9015 102.391
10 5 1 98.4544 99.4804 102.183
11 6 1 99.5566 97.0711 101.012
12 6 1 100.171 102.178 101.527
13 7 1 98.6742 102.913 101.755
14 7 1 98.9371 97.9998 102.351
15 8 1 102.627 98.8631 99.7562
16 8 1 101.758 99.5721 100.174
17 9 1 101.183 102.061 97.1739
18 9 1 101.391 97.2646 97.113
19 10 1 102.206 98.4642 98.7937
20 10 1 102.656 99.592 98.889
21 11 1 97.4577 97.8643 99.2583
22 11 1 98.4298 98.0433 98.5426
23 12 1 97.1703 98.2111 102.218
24 12 1 97.0621 98.5123 101.15
25 13 1 97.7066 101.446 97.0182
26 13 1 98.214 101.315 101.887
27 14 1 101.322 102.168 101.356
28 14 1 100.584 101.428 100.817
29 15 1 98.6056 101.95 99.1677
30 15 1 98.1849 101.847 98.0098
31 16 1 101.693 97.1386 101.039
32 16 1 100.967 102.456 100.351
33 17 1 102.815 97.4877 101.204
34 17 1 97.1417 98.0011 100.234
35 18 1 101.409 97.4701 100.076
36 18 1 101.596 98.5399 99.6655
37 19 1 101.858 97.8791 97.9006
38 19 1 102.684 97.1187 97.5893
39 20 1 100.279 98.6085 97.6747
40 20 1 99.7519 97.7546 97.0558
41 21 1 98.6949 99.8054 97.2887
42 21 1 99.1715 98.7339 103.024
43 22 1 98.7595 97.0353 98.2617
44 22 1 99.2837 98.1238 97.998
45 23 1 98.0618 102.902 99.0073
46 23 1 97.5516 97.5961 98.2323
47 24 1 101.211 98.001 101.37
48 24 1 99.997 98.0387 101.523
49 25 1 99.0975 100.35 99.952
50 25 1 99.8694 100.484 99.0468
51 26 1 97.0543 102.858 99.4207
52 26 1 102.425 102.829 100.348
53 27 1 101.122 98.3139 97.1385
54 27 1 102.036 99.0456 102.844
55 28 1 98.5829 102.703 100.727
56 28 1 99.1244 97.7369 100.301
57 29 1 97.5024 101.953 98.9803
58 29 1 102.527 102.183 98.6959
59 30 1 99.2942 102.345 97.567
60 30 1 98.0976 102.716 97.3961
61 31 1 101.541 97.5353 98.915
62 31 1 100.687 98.0482 99.5734
63 32 1 99.4838 101.215 102.016
64 32 1 100.253 100.504 101.559
65 33 1 97.2467 99.3044 101.987
66 33 1 98.1118 98.5373 101.693
67 34 1 99.9379 99.6566 97.4057
68 34 1 100.972 99.4353 102.822
69 35 1 97.1854 101.721 101.967
70 35 1 102.612 101.451 102.786
71 36 1 98.0764 102.248 102.374
72 36 1 97.4264 102.646 101.512
73 37 1 98.9384 97.0497 102.822
74 37 1 99.732 97.2066 102.067
75 38 1 98.4099 100.729 100.721
76 38 1 97.3508 100.982 101.146
77 39 1 100.318 101.439 98.727
78 39 1 99.6019 101.384 99.6412
79 40 1 99.441 98.7109 100.748
80 40 1 98.8873 97.8717 101.321
81 41 1 100.978 102.552 102.251
82 41 1 101.841 97.4185 102.038
83 42 1 99.8264 102.101 100.433
84 42 1 99.0888 101.978 101.371
85 43 1 100.371 99.0895 101.348
86 43 1 101.26 98.7333 102.099
87 44 1 100.605 99.0457 99.1456
88 44 1 99.7702 98.4651 99.7648
89 45 1 100.55 100.429 102.737
90 45 1 101.497 101.055 97.0157
91 46 1 100.788 100.083 98.5662
92 46 1 101.641 99.3746 99.0675
93 47 1 100.222 102.229 99.4923
94 47 1 100.083 97.2921 100.068
95 48 1 97.1022 98.7357 98.814
96 48 1 97.7976 98.6279 97.8268
97 49 1 102.374 101.22 101.41
98 49 1 102.907 100.134 101.435
99 50 1 97.6322 99.6669 102.934
100 50 1 98.1114 98.5879 102.753
101 51 1 97.3937 100.511 97.517
102 51 1 97.0211 101.523 97.9928
103 52 1 97.5057 99.8133 99.0659
104 52 1 102.958 100.473 98.3872
105 53 1 99.7815 97.2269 97.9909
106 53 1 99.5255 102.291 98.6679
107 54 1 100.922 101.527 99.8588
108 54 1 100.192 100.636 100.159
109 55 1 102.919 97.1965 102.284
110 55 1 97.3758 97.7482 97.2102
111 56 1 98.1166 99.9075 98.2276
112 56 1 98.8947 99.0838 98.0134
113 57 1 102.43 100.813 97.5875
114 57 1 102.754 99.9776 102.795
115 58 1 102.867 98.1717 97.9278
116 58 1 102.156 99.121 97.9342
117 59 1 100.227 102.805 97.0636
118 59 1 100.72 97.6747 102.317
119 60 1 98.1432 97.3924 100.027
120 60 1 98.1884 98.4525 100.6
121 61 1 101.252 100.966 101.471
122 61 1 101.511 100.772 100.297
123 62 1 102.69 100.863 100.427
124 62 1 103.083 101.01 99.3232
125 63 1 97.2981 102.934 100.485
126 63 1 103.036 101.895 100.843
127 64 1 101.713 100.061 97.2
128 64 1 101.04 99.3381 97.8874
129 65 1 98.1737 99.0235 98.8635
130 65 1 98.7607 99.2462 99.9375
131 66 1 101.936 100.216 101.074
132 66 1 102.579 99.2788 100.813
133 67 1 101.214 99.9379 101.886
134 67 1 100.814 100.03 100.796
135 68 1 97.6009 101.176 100.12
136 68 1 97.978 101.882 101.022
137 69 1 98.6126 99.3459 101.085
138 69 1 97.9498 100.167 101.579
139 70 1 102.171 101.199 98.5452
140 70 1 102.219 101.997 97.6325
141 71 1 101.195 100.888 99.0741
142 71 1 101.182 101.402 98.0265
143 72 1 100.755 97.5626 97.913
144 72 1 101.691 102.806 98.0927
145 73 1 98.4806 98.2705 99.5871
146 73 1 99.3393 97.546 99.1271
147 74 1 102.971 99.885 99.9831
148 74 1 98.0312 100.056 99.98
149 75 1 101.716 101.709 102.204
150 75 1 102.084 100.564 102.24
151 76 1 100.673 99.1005 100.267
152 76 1 99.7691 99.5434 99.5912
153 77 1 98.9169 99.75 98.9842
154 77 1 98.8361 100.898 98.8879
155 78 1 101.921 102.682 99.4351
156 78 1 102.854 101.965 99.8263
157 79 1 101.934 101.587 99.5284
158 79 1 101.145 102.149 98.8521
159 80 1 102.138 102.531 102.708
160 80 1 97.1107 102.353 97.0091
161 81 2 99.0944 100.205 101.518
162 82 2 97.8892 102.268 100.016
163 83 2 101.917 101.765 100.576
164 84 2 98.8496 101.625 102.943
165 85 2 100.516 98.1139 100.606
166 86 2 98.426 97.8108 97.4169
167 87 2 102.268 98.396 101.726
168 88 2 100.61 97.167 101.271
169 89 2 99.1207 102.662 99.7664
170 90 2 99.4271 101.077 100.858
171 91 2 102.455 97.6928 99.6367
172 92 2 98.7964 101.687 100.225
173 93 2 97.9347 97.4263 102.333
174 94 2 100.859 100.036 99.6204
175 95 2 99.4297 100.721 97.1058
176 96 2 101.16 98.4507 98.4926
177 97 2 103.024 98.8505 97.1206
178 98 2 100.584 101.435 102.302
179 99 2 97.7802 100.864 98.6253
180 100 2 100.145 98.7006 102.458
181 101 2 102.373 97.9229 102.824
182 102 2 97.5397 98.9567 99.8586
183 103 2 102.076 100.429 99.5104
184 104 2 97.2985 102.536 98.1488
185 105 2 102.643 97.3895 98.6426
186 106 2 100.487 97.1551 98.9369
187 107 2 99.6696 99.6893 100.635
188 108 2 97.8091 97.578 101.184
189 109 2 97.4844 99.4338 100.806
190 110 2 101.813 100.109 98.3382
191 111 2 97.0667 99.4059 97.9758
192 112 2 102.421 102.359 101.584
193 113 2 97.3264 100.626 102.325
194 114 2 99.9003 99.347 98.4201
195 115 2 100.435 102.377 98.025
196 116 2 99.2794 100.188 98.1113
197 117 2 99.5668 102.183 102.441
198 118 2 100.125 101.662 97.2699
199 119 2 99.2673 98.919 101.806
200 120 2 102.273 99.4192 101.894
ITEM: TIMESTEP
4000
ITEM: NUMBER OF ATOMS
200
ITEM: BOX BOUNDS pp pp pp
9.6894497452290153e+01 1.0310550254770985e+02
9.7016265948899743e+01 1.0298373405110026e+02
9.7016265948899743e+01 1.0298373405110026e+02
ITEM: ATOMS id mol type x y z
1 1 1 101.453 99.1484 101.102
2 1 1 102.063 98.18 100.665
3 2 1 99.2208 98.7396 99.0002
4 2 1 100.15 98.1242 98.6312
5 3 1 99.2316 101.384 98.1662
6 3 1 100.219 100.781 97.9292
7 4 1 98.3834 100.576 102.562
8 4 1 98.3545 100.814 97.7391
9 5 1 99.6589 99.8893 102.343
10 5 1 98.503 99.4588 102.261
11 6 1 99.6106 97.1457 100.999
12 6 1 100.156 102.17 101.502
13 7 1 98.7492 102.893 101.796
14 7 1 98.8736 98.0022 102.374
15 8 1 102.665 98.8558 99.7522
16 8 1 101.703 99.5042 100.115
17 9 1 101.188 102.14 97.2329
18 9 1 101.443 97.3346 97.0629
19 10 1 102.249 98.4619 98.7566
20 10 1 102.635 99.5281 98.8231
21 11 1 97.4414 97.8566 99.2547
22 11 1 98.463 98.0381 98.5924
23 12 1 97.1451 98.1096 102.205
24 12 1 97.0563 98.466 101.103
25 13 1 97.6577 101.38 96.9422
26 13 1 98.1339 101.256 101.823
27 14 1 101.253 102.143 101.33
28 14 1 100.548 101.392 100.773
29 15 1 98.6575 101.952 99.0065
30 15 1 98.0353 101.836 97.9943
31 16 1 101.672 97.1879 101.028
32 16 1 100.887 102.484 100.359
33 17 1 102.842 97.4884 101.289
34 17 1 97.1598 97.8673 100.275
35 18 1 101.453 97.3965 100.023
36 18 1 101.62 98.4977 99.6157
37 19 1 101.909 97.8466 97.94
38 19 1 102.739 97.1332 97.5057
39 20 1 100.304 98.6418 97.711
40 20 1 99.8284 97.8271 96.9773
41 21 1 98.531 99.8181 97.3683
42 21 1 99.1146 98.8496 103.008
43 22 1 98.7854 97.1329 98.1858
44 22 1 99.3564 98.1926 97.9446
45 23 1 98.1067 102.91 98.9779
46 23 1 97.6373 97.6196 98.1637
47 24 1 101.217 98.0827 101.401
48 24 1 100.026 98.0482 101.528
49 25 1 99.1069 100.319 99.9554
50 25 1 99.9127 100.414 99.037
51 26 1 97.0378 102.894 99.4387
52 26 1 102.525 102.884 100.409
53 27 1 101.127 98.4112 97.0931
54 27 1 102.09 99.0316 102.793
55 28 1 98.5843 102.709 100.749
56 28 1 99.0765 97.742 100.269
57 29 1 97.5027 101.942 99.0101
58 29 1 102.55 102.18 98.6788
59 30 1 99.2945 102.326 97.6356
60 30 1 98.1016 102.757 97.426
61 31 1 101.6 97.4671 98.8943
62 31 1 100.733 97.9497 99.5172
63 32 1 99.3933 101.148 102.084
64 32 1 100.201 100.557 101.505
65 33 1 97.0809 99.2177 101.963
66 33 1 98.0702 98.595 101.677
67 34 1 99.7407 99.6091 97.4038
68 34 1 100.808 99.4519 102.916
69 35 1 97.1771 101.714 101.95
70 35 1 102.668 101.226 102.714
71 36 1 98.0931 102.236 102.365
72 36 1 97.3582 102.663 101.574
73 37 1 98.968 96.9966 102.848
74 37 1 99.807 97.1066 102.04
75 38 1 98.3625 100.859 100.725
76 38 1 97.2997 100.991 101.168
77 39 1 100.372 101.387 98.7761
78 39 1 99.5626 101.34 99.6397
79 40 1 99.5509 98.6989 100.729
80 40 1 98.9178 97.8995 101.295
81 41 1 101.06 102.663 102.212
82 41 1 101.941 97.4771 102.025
83 42 1 99.7168 102.145 100.536
84 42 1 98.9445 101.858 101.404
85 43 1 100.382 99.0981 101.3
86 43 1 101.258 98.8248 102.11
87 44 1 100.604 98.9217 99.173
88 44 1 99.7734 98.3997 99.7991
89 45 1 100.48 100.567 102.699
90 45 1 101.505 101.114 97.0624
91 46 1 100.846 100.161 98.5048
92 46 1 101.63 99.3554 99.0327
93 47 1 100.17 102.222 99.5493
94 47 1 100.06 97.3263 100.027
95 48 1 97.1661 98.7628 98.7936
96 48 1 97.7693 98.6618 97.8246
97 49 1 102.476 101.178 101.525
98 49 1 102.96 100.118 101.39