ITEM: TIMESTEP
0
ITEM: NUMBER OF ATOMS
200
ITEM: BOX BOUNDS pp pp pp
9.7035907246252563e+01 1.0296409275374744e+02
9.7035907246252563e+01 1.0296409275374744e+02
9.7035907246252563e+01 1.0296409275374744e+02
ITEM: ATOMS id mol type x y z
1 1 1 102.822 99.0218 100.686
2 1 1 97.4345 100.05 101.006
3 2 1 102.85 101.516 97.7519
4 2 1 102.826 100.675 98.5498
5 3 1 98.8761 100.201 98.7043
6 3 1 98.7987 99.0028 98.634
7 4 1 98.1149 100.232 102.88
8 4 1 97.9264 100.775 101.819
9 5 1 99.441 98.6475 102.13
10 5 1 99.2863 99.4602 101.261
11 6 1 99.9014 99.0146 97.2313
12 6 1 98.8558 99.4283 102.729
13 7 1 97.8157 98.671 101.036
14 7 1 98.2561 97.7656 101.591
15 8 1 102.714 100.835 99.5657
16 8 1 102.877 102.02 99.4541
17 9 1 100.229 101.813 102.306
18 9 1 101.283 101.165 102.311
19 10 1 101.687 100.412 99.865
20 10 1 101.784 100.712 98.6908
21 11 1 98.0507 102.356 99.1018
22 11 1 97.8486 97.4141 99.6996
23 12 1 102.468 97.8652 102.253
24 12 1 97.2992 102.947 101.839
25 13 1 97.9738 101.823 101.857
26 13 1 97.4082 101.215 100.991
27 14 1 100.602 102.913 102.213
28 14 1 101.025 97.1377 101.169
29 15 1 98.4868 100.84 99.5233
30 15 1 97.7075 101.381 98.7433
31 16 1 100.417 97.4933 97.9408
32 16 1 99.5031 97.9863 97.3736
33 17 1 102.744 99.0803 102.382
34 17 1 97.5588 98.2276 102.245
35 18 1 101.126 97.1822 100.068
36 18 1 101.33 98.2807 99.5925
37 19 1 102.042 100.404 102.408
38 19 1 102.324 100.574 97.597
39 20 1 97.2425 98.169 99.081
40 20 1 102.58 98.8639 98.3294
41 21 1 98.8137 98.7561 97.6155
42 21 1 97.8442 98.0721 97.4516
43 22 1 98.907 97.9193 98.2961
44 22 1 98.7259 97.2491 99.1517
45 23 1 98.9178 101.398 98.743
46 23 1 98.6192 102.482 98.2605
47 24 1 102.521 99.743 101.576
48 24 1 101.642 99.4032 102.236
49 25 1 101.213 101.201 100.499
50 25 1 100.913 100.07 100.68
51 26 1 97.6958 102.389 100.085
52 26 1 102.597 102.895 100.403
53 27 1 102.136 102.745 98.4871
54 27 1 102.684 102.527 97.4913
55 28 1 97.7735 97.3089 100.793
56 28 1 97.1463 98.1023 100.201
57 29 1 97.3583 101.138 102.698
58 29 1 97.9707 101.763 97.6085
59 30 1 99.5128 101.396 102.926
60 30 1 99.1385 102.161 102.089
61 31 1 102.762 99.8586 99.9681
62 31 1 97.394 99.2555 99.0529
63 32 1 98.8791 101.28 101.573
64 32 1 99.4957 100.469 101.009
65 33 1 100.399 100.845 102.851
66 33 1 99.8514 99.7746 102.461
67 34 1 100.739 98.4354 97.4583
68 34 1 100.823 98.1818 98.6101
69 35 1 97.3873 102.294 101.053
70 35 1 102.192 102.523 101.373
71 36 1 98.8171 102.268 97.2182
72 36 1 97.805 102.782 97.6139
73 37 1 99.1873 97.5335 102.089
74 37 1 100.226 97.9181 102.54
75 38 1 97.6184 99.8193 102.021
76 38 1 102.805 100.717 101.747
77 39 1 100.324 102.5 98.4764
78 39 1 100.139 102.814 99.5995
79 40 1 101.173 98.1503 101.654
80 40 1 100.033 97.8774 101.522
81 41 1 98.6261 97.3948 97.2781
82 41 1 99.5234 102.888 97.8965
83 42 1 99.7773 102.688 101.458
84 42 1 98.5679 102.678 101.377
85 43 1 100.826 98.0131 100.651
86 43 1 100.156 98.886 101.266
87 44 1 101.773 98.609 100.482
88 44 1 102.153 97.7108 99.7854
89 45 1 99.4121 99.605 97.9983
90 45 1 99.2465 100.364 97.1391
91 46 1 101.171 99.9355 98.9593
92 46 1 102.36 99.8073 98.9834
93 47 1 99.1738 97.5291 100.993
94 47 1 100.136 97.1963 100.57
95 48 1 97.8043 98.682 98.2579
96 48 1 102.858 97.8016 98.1284
97 49 1 98.3976 99.5279 100.712
98 49 1 98.3756 100.718 100.811
99 50 1 102.761 98.4293 97.2651
100 50 1 102.241 99.4694 97.26
101 51 1 97.0444 100.088 102.835
102 51 1 97.2919 99.5473 97.9028
103 52 1 97.8099 100.257 98.9131
104 52 1 98.3255 99.7207 97.9261
105 53 1 99.7696 97.4931 98.7728
106 53 1 99.3632 97.5565 99.9096
107 54 1 100.939 102.09 101.523
108 54 1 100.666 100.931 101.441
109 55 1 101.61 102.506 97.5158
110 55 1 102.358 102.604 102.458
111 56 1 98.558 98.2337 102.609
112 56 1 98.3849 99.1684 101.881
113 57 1 101.116 99.384 97.1884
114 57 1 101.571 98.4167 102.607
115 58 1 97.4245 102.185 102.713
116 58 1 97.2864 97.4051 102.814
117 59 1 101.561 98.9747 98.7796
118 59 1 101.762 98.5045 97.7158
119 60 1 97.7255 98.9446 100.003
120 60 1 97.8227 100.182 100.017
121 61 1 100.82 100.12 102.268
122 61 1 101.598 100.469 101.448
123 62 1 101.914 101.431 101.4
124 62 1 102.574 101.759 100.449
125 63 1 99.9433 101.687 99.8082
126 63 1 99.3703 102.361 98.967
127 64 1 100.672 99.2079 98.1686
128 64 1 101.722 99.8275 98.0859
129 65 1 99.046 98.8997 100.099
130 65 1 99.9197 99.6169 100.452
131 66 1 99.8093 98.2682 100.481
132 66 1 98.8977 98.5326 101.166
133 67 1 100.452 100.001 99.7031
134 67 1 101.483 99.3752 99.7687
135 68 1 97.7038 101.38 99.9403
136 68 1 98.3646 101.845 100.789
137 69 1 99.8474 101.551 101.255
138 69 1 99.1868 101.218 100.357
139 70 1 100.193 100.133 98.6968
140 70 1 100.867 100.943 99.353
141 71 1 101.33 100.424 97.2475
142 71 1 101.668 101.438 97.7823
143 72 1 101.146 101.832 98.6408
144 72 1 102.305 101.666 98.6353
145 73 1 99.4956 98.4001 99.2528
146 73 1 100.526 99.0272 99.1845
147 74 1 98.4038 99.5022 99.4656
148 74 1 99.5745 99.4798 99.216
149 75 1 100.268 99.9019 101.453
150 75 1 101.214 99.2426 101.262
151 76 1 99.5807 100.755 99.3352
152 76 1 99.6612 100.803 98.105
153 77 1 100.162 101.45 98.7904
154 77 1 99.4671 101.828 97.9468
155 78 1 102.87 97.1505 99.1868
156 78 1 101.908 102.569 99.4669
157 79 1 100.889 102.128 99.5992
158 79 1 101.049 97.2027 98.9841
159 80 1 101.071 97.482 97.0808
160 80 1 101.624 97.2896 102.026
161 81 2 98.8034 100.214 101.971
162 82 2 98.7506 101.969 99.757
163 83 2 101.587 102.209 100.517
164 84 2 98.536 101.232 102.708
165 85 2 101.91 97.6004 100.914
166 86 2 97.8535 97.4425 98.5009
167 87 2 102.058 98.6297 101.506
168 88 2 99.6164 102.838 102.767
169 89 2 98.3876 98.0792 100.31
170 90 2 100.482 102.142 100.602
171 91 2 102.408 100.711 100.725
172 92 2 99.4084 102.298 100.566
173 93 2 98.2031 102.828 102.405
174 94 2 102.03 99.7246 100.688
175 95 2 99.8304 98.5218 98.2462
176 96 2 102.384 98.7783 99.6415
177 97 2 102.119 97.5648 97.2631
178 98 2 99.7612 100.772 102.055
179 99 2 97.6474 100.648 97.8008
180 100 2 102.004 97.9518 98.7853
181 101 2 102.295 101.543 102.79
182 102 2 98.3417 98.3131 99.2765
183 103 2 101.842 101.461 99.5884
184 104 2 101.367 102.202 102.481
185 105 2 97.2358 102.305 98.3927
186 106 2 100.374 97.942 99.67
187 107 2 100.197 100.791 100.35
188 108 2 102.858 97.9651 101.273
189 109 2 99.0556 100.102 100.033
190 110 2 100.198 100.035 97.5187
191 111 2 97.7855 99.126 102.943
192 112 2 100.45 102.43 97.2676
193 113 2 102.821 101.826 101.905
194 114 2 100.901 100.721 98.1473
195 115 2 100.438 101.53 97.7509
196 116 2 98.6546 100.933 97.8207
197 117 2 98.6103 102.872 100.287
198 118 2 101.425 97.4925 98.0887
199 119 2 100.597 98.8392 102.206
200 120 2 100.672 98.9338 100.23
ITEM: TIMESTEP
1000
ITEM: NUMBER OF ATOMS
200
ITEM: BOX BOUNDS pp pp pp
9.7006117618824433e+01 1.0299388238117557e+02
9.7035907246252563e+01 1.0296409275374744e+02
9.7035907246252563e+01 1.0296409275374744e+02
ITEM: ATOMS id mol type x y z
1 1 1 102.827 99.0136 100.648
2 1 1 97.3752 100.068 100.946
3 2 1 102.801 101.449 97.6718
4 2 1 102.885 100.627 98.5498
5 3 1 98.9296 100.161 98.67
6 3 1 98.8418 98.9704 98.6227
7 4 1 98.0943 100.227 102.858
8 4 1 97.8836 100.745 101.778
9 5 1 99.4461 98.5812 102.145
10 5 1 99.2741 99.4521 101.406
11 6 1 99.9116 98.9858 97.2081
12 6 1 98.8596 99.4026 102.748
13 7 1 97.7482 98.6965 101.093
14 7 1 98.2723 97.7831 101.633
15 8 1 102.802 100.817 99.5812
16 8 1 102.952 101.973 99.3917
17 9 1 100.232 101.835 102.272
18 9 1 101.23 101.158 102.311
19 10 1 101.779 100.414 99.7745
20 10 1 101.83 100.729 98.6314
21 11 1 97.9448 102.372 99.1209
22 11 1 97.7929 97.4754 99.7089
23 12 1 102.534 97.9158 102.277
24 12 1 97.2595 102.975 101.882
25 13 1 97.9571 101.867 101.884
26 13 1 97.316 101.263 101.012
27 14 1 100.594 102.885 102.204
28 14 1 101.028 97.1342 101.122
29 15 1 98.5034 100.828 99.4608
30 15 1 97.7362 101.382 98.6935
31 16 1 100.385 97.5476 97.9494
32 16 1 99.4804 98.0072 97.3299
33 17 1 102.768 99.0483 102.415
34 17 1 97.563 98.2611 102.164
35 18 1 101.158 97.283 100.078
36 18 1 101.367 98.3039 99.5873
37 19 1 102.087 100.473 102.428
38 19 1 102.394 100.472 97.6329
39 20 1 97.2554 98.2301 99.1015
40 20 1 102.589 98.8762 98.3577
41 21 1 98.8104 98.7542 97.6344
42 21 1 97.8587 98.0466 97.5594
43 22 1 98.8859 97.9478 98.3144
44 22 1 98.7641 97.1494 99.1942
45 23 1 98.9567 101.377 98.7374
46 23 1 98.5419 102.377 98.2435
47 24 1 102.616 99.7189 101.636
48 24 1 101.674 99.443 102.235
49 25 1 101.234 101.234 100.473
50 25 1 101.007 100.124 100.574
51 26 1 97.6366 102.386 100.099
52 26 1 102.606 102.907 100.421
53 27 1 102.061 102.623 98.5234
54 27 1 102.654 102.57 97.509
55 28 1 97.7232 97.3164 100.789
56 28 1 97.0737 98.0806 100.19
57 29 1 97.3008 101.15 102.665
58 29 1 97.8881 101.71 97.6195
59 30 1 99.5203 101.387 102.964
60 30 1 99.1429 102.09 102.14
61 31 1 102.76 99.8265 99.9777
62 31 1 97.3527 99.3463 99.0477
63 32 1 98.7925 101.296 101.545
64 32 1 99.3661 100.414 101.011
65 33 1 100.373 100.802 102.838
66 33 1 99.8234 99.7588 102.38
67 34 1 100.748 98.4108 97.4415
68 34 1 100.924 98.1798 98.5823
69 35 1 97.3755 102.33 101.089
70 35 1 102.221 102.597 101.353
71 36 1 98.7635 102.242 97.2135
72 36 1 97.7622 102.794 97.6155
73 37 1 99.1734 97.5148 102.115
74 37 1 100.257 97.8534 102.593
75 38 1 97.6505 99.743 101.973
76 38 1 102.835 100.701 101.762
77 39 1 100.401 102.483 98.4113
78 39 1 100.17 102.788 99.5889
79 40 1 101.162 98.2053 101.634
80 40 1 100.076 97.837 101.531
81 41 1 98.6471 97.3733 97.3247
82 41 1 99.5048 102.896 97.9628
83 42 1 99.8105 102.707 101.49
84 42 1 98.569 102.651 101.433
85 43 1 100.825 98.0689 100.659
86 43 1 100.124 98.8567 101.262
87 44 1 101.804 98.6004 100.46
88 44 1 102.188 97.6735 99.7518
89 45 1 99.459 99.5874 97.9807
90 45 1 99.2064 100.398 97.0889
91 46 1 101.184 99.9291 98.9422
92 46 1 102.355 99.8076 98.9703
93 47 1 99.1524 97.5267 101.01
94 47 1 100.165 97.265 100.55
95 48 1 97.7713 98.7987 98.2634
96 48 1 102.984 97.848 98.1682
97 49 1 98.3635 99.5177 100.852
98 49 1 98.228 100.739 100.759
99 50 1 102.862 98.4677 97.3424
100 50 1 102.246 99.5012 97.2501
101 51 1 97.0454 100.085 102.788
102 51 1 97.2086 99.6176 97.921
103 52 1 97.849 100.252 98.817
104 52 1 98.3598 99.7054 97.8798
105 53 1 99.7632 97.5005 98.814
106 53 1 99.3482 97.5647 99.9367
107 54 1 101.012 102.11 101.555
108 54 1 100.663 100.998 101.428
109 55 1 101.645 102.431 97.5657
110 55 1 102.365 102.646 102.462
111 56 1 98.5883 98.2407 102.659
112 56 1 98.4083 99.0794 101.873
113 57 1 101.172 99.3506 97.2207
114 57 1 101.645 98.4381 102.629
115 58 1 97.3384 102.189 102.71
116 58 1 97.2976 97.4482 102.835
117 59 1 101.624 98.9708 98.788
118 59 1 101.808 98.51 97.7261
119 60 1 97.7178 99.0154 100.004
120 60 1 97.7547 100.19 99.9211
121 61 1 100.801 100.075 102.22
122 61 1 101.594 100.447 101.47
123 62 1 101.883 101.468 101.39
124 62 1 102.606 101.795 100.416
125 63 1 99.8761 101.669 99.8212
126 63 1 99.4379 102.309 98.9449
127 64 1 100.696 99.1696 98.1988
128 64 1 101.711 99.8094 98.0854
129 65 1 98.9208 98.9053 100.064
130 65 1 99.7987 99.6036 100.465
131 66 1 99.7674 98.3458 100.44
132 66 1 98.9168 98.512 101.171
133 67 1 100.425 100.007 99.6793
134 67 1 101.536 99.405 99.766
135 68 1 97.6928 101.317 99.8943
136 68 1 98.3002 101.867 100.742
137 69 1 99.8136 101.613 101.227
138 69 1 99.1064 101.224 100.357
139 70 1 100.19 100.089 98.6718
140 70 1 100.934 100.889 99.3093
141 71 1 101.354 100.37 97.205
142 71 1 101.685 101.357 97.7667
143 72 1 101.194 101.78 98.6326
144 72 1 102.31 101.607 98.6597
145 73 1 99.5041 98.4694 99.291
146 73 1 100.58 99.0477 99.2361
147 74 1 98.3819 99.5121 99.3765
148 74 1 99.5502 99.5369 99.296
149 75 1 100.291 99.9835 101.323
150 75 1 101.229 99.2423 101.326
151 76 1 99.6082 100.7 99.3315
152 76 1 99.6737 100.781 98.1138
153 77 1 100.167 101.457 98.7869
154 77 1 99.4654 101.854 97.9535
155 78 1 102.913 97.1229 99.1657
156 78 1 101.984 102.507 99.5761
157 79 1 100.945 102.073 99.6276
158 79 1 101.146 97.1629 99.0477
159 80 1 101.159 97.4603 97.0565
160 80 1 101.649 97.335 101.968
161 81 2 98.7973 100.272 102.013
162 82 2 98.6955 101.96 99.7047
163 83 2 101.591 102.268 100.563
164 84 2 98.481 101.216 102.696
165 85 2 101.92 97.6263 100.924
166 86 2 97.8772 97.3709 98.5665
167 87 2 102.086 98.6395 101.525
168 88 2 99.6005 102.826 102.822
169 89 2 98.305 98.0964 100.38
170 90 2 100.483 102.172 100.593
171 91 2 102.401 100.707 100.695
172 92 2 99.3787 102.353 100.551
173 93 2 98.1685 102.809 102.408
174 94 2 102.047 99.6524 100.778
175 95 2 99.88 98.4897 98.2257
176 96 2 102.43 98.8293 99.6248
177 97 2 102.184 97.58 97.3391
178 98 2 99.7358 100.772 102.008
179 99 2 97.6216 100.674 97.7565
180 100 2 102.058 97.8839 98.7094
181 101 2 102.243 101.639 102.765
182 102 2 98.3205 98.2865 99.2469
183 103 2 101.915 101.434 99.6133
184 104 2 101.38 102.215 102.52
185 105 2 97.1543 102.262 98.3419
186 106 2 100.401 97.9235 99.6405
187 107 2 100.144 100.803 100.389
188 108 2 102.847 97.9915 101.276
189 109 2 98.9357 100.071 100.108
190 110 2 100.26 99.9965 97.4879
191 111 2 97.8016 99.1328 102.892
192 112 2 100.464 102.505 97.3127
193 113 2 102.786 101.834 101.914
194 114 2 100.885 100.732 98.1285
195 115 2 100.486 101.536 97.688
196 116 2 98.6573 100.953 97.8154
197 117 2 98.5375 102.881 100.29
198 118 2 101.421 97.426 98.0556
199 119 2 100.589 98.8303 102.225
200 120 2 100.74 99.0434 100.297
ITEM: TIMESTEP
2000
ITEM: NUMBER OF ATOMS
200
ITEM: BOX BOUNDS pp pp pp
9.6976028600663270e+01 1.0302397139933673e+02
9.7035907246252563e+01 1.0296409275374744e+02
9.7035907246252563e+01 1.0296409275374744e+02
ITEM: ATOMS id mol type x y z
1 1 1 102.853 98.9887 100.733
2 1 1 97.3624 100.087 100.873
3 2 1 102.913 101.5 97.7303
4 2 1 102.96 100.642 98.6001
5 3 1 98.9511 100.193 98.6821
6 3 1 98.8224 98.9756 98.6528
7 4 1 98.0671 100.21 102.893
8 4 1 97.9201 100.74 101.81
9 5 1 99.462 98.6329 102.205
10 5 1 99.2667 99.3862 101.285
11 6 1 99.8752 98.9438 97.2105
12 6 1 98.8582 99.4368 102.774
13 7 1 97.7692 98.6859 101.169
14 7 1 98.2408 97.6891 101.586
15 8 1 102.763 100.824 99.604
16 8 1 102.955 101.999 99.4345
17 9 1 100.24 101.87 102.384
18 9 1 101.275 101.223 102.293
19 10 1 101.74 100.389 99.7554
20 10 1 101.895 100.716 98.5926
21 11 1 98.0459 102.403 99.1967
22 11 1 97.7309 97.4 99.7498
23 12 1 102.578 97.948 102.302
24 12 1 97.2745 103.045 101.891
25 13 1 97.9171 101.811 101.854
26 13 1 97.347 101.257 100.948
27 14 1 100.562 102.879 102.179
28 14 1 101.02 97.108 101.151
29 15 1 98.5569 100.779 99.4991
30 15 1 97.8942 101.392 98.6954
31 16 1 100.325 97.5666 97.8641
32 16 1 99.4052 97.9874 97.2808
33 17 1 102.804 99.0947 102.324
34 17 1 97.5427 98.2391 102.177
35 18 1 101.155 97.2205 100.037
36 18 1 101.389 98.3152 99.5777
37 19 1 102.123 100.519 102.406
38 19 1 102.521 100.471 97.6213
39 20 1 97.2059 98.2062 99.1077
40 20 1 102.596 98.9564 98.3967
41 21 1 98.7834 98.7763 97.6276
42 21 1 97.8137 98.0731 97.5537
43 22 1 98.9034 97.9086 98.2858
44 22 1 98.6782 97.2814 99.1906
45 23 1 99.0064 101.357 98.7796
46 23 1 98.5342 102.376 98.2687
47 24 1 102.579 99.7283 101.533
48 24 1 101.67 99.4879 102.203
49 25 1 101.286 101.234 100.44
50 25 1 100.991 100.099 100.636
51 26 1 97.6403 102.332 100.167
52 26 1 102.699 102.89 100.394
53 27 1 102.165 102.756 98.4931
54 27 1 102.743 102.532 97.5208
55 28 1 97.6778 97.3201 100.8
56 28 1 97.1219 98.1654 100.182
57 29 1 97.2433 101.151 102.675
58 29 1 97.9297 101.688 97.5519
59 30 1 99.5158 101.417 103.027
60 30 1 99.1101 102.111 102.17
61 31 1 102.804 99.8345 100.019
62 31 1 97.3337 99.4183 99.0756
63 32 1 98.8639 101.252 101.578
64 32 1 99.4708 100.44 101.006
65 33 1 100.391 100.84 102.888
66 33 1 99.85 99.7687 102.399
67 34 1 100.791 98.3575 97.444
68 34 1 100.825 98.177 98.6198
69 35 1 97.3274 102.344 101.12
70 35 1 102.233 102.587 101.38
71 36 1 98.7407 102.24 97.23
72 36 1 97.7541 102.775 97.6272
73 37 1 99.1395 97.4844 102.083
74 37 1 100.193 97.8662 102.592
75 38 1 97.6292 99.7263 101.853
76 38 1 102.929 100.68 101.681
77 39 1 100.302 102.506 98.4701
78 39 1 100.093 102.79 99.6184
79 40 1 101.181 98.1631 101.631
80 40 1 100.031 97.8958 101.553
81 41 1 98.5672 97.3712 97.3185
82 41 1 99.4568 102.959 97.9026
83 42 1 99.8032 102.647 101.523
84 42 1 98.5451 102.606 101.408
85 43 1 100.859 98.0629 100.668
86 43 1 100.209 98.8702 101.259
87 44 1 101.81 98.5694 100.495
88 44 1 102.232 97.6974 99.7851
89 45 1 99.3912 99.5691 97.957
90 45 1 99.2159 100.414 97.0935
91 46 1 101.16 99.9048 98.9126
92 46 1 102.333 99.8316 99.0237
93 47 1 99.1375 97.4483 100.992
94 47 1 100.156 97.2426 100.598
95 48 1 97.7919 98.7982 98.3149
96 48 1 103.014 97.8302 98.1503
97 49 1 98.325 99.5545 100.843
98 49 1 98.2799 100.722 100.769
99 50 1 102.908 98.5201 97.3131
100 50 1 102.245 99.4899 97.222
101 51 1 97.0241 100.034 102.686
102 51 1 97.2122 99.5785 97.8359
103 52 1 97.8795 100.268 98.7973
104 52 1 98.3016 99.6837 97.8683
105 53 1 99.7214 97.4825 98.8496
106 53 1 99.317 97.5494 99.951
107 54 1 100.934 102.019 101.537
108 54 1 100.686 100.914 101.469
109 55 1 101.648 102.498 97.5196
110 55 1 102.422 102.659 102.478
111 56 1 98.5188 98.2095 102.64
112 56 1 98.4391 99.1097 101.909
113 57 1 101.184 99.3106 97.1856
114 57 1 101.632 98.3731 102.584
115 58 1 97.3126 102.187 102.674
116 58 1 97.202 97.4396 102.914
117 59 1 101.586 98.9689 98.7596
118 59 1 101.84 98.5647 97.738
119 60 1 97.673 99.0306 100.048
120 60 1 97.7453 100.219 99.914
121 61 1 100.829 100.154 102.262
122 61 1 101.652 100.399 101.466
123 62 1 101.886 101.47 101.41
124 62 1 102.578 101.8 100.509
125 63 1 99.8656 101.7 99.7291
126 63 1 99.3144 102.373 98.9516
127 64 1 100.712 99.1818 98.1813
128 64 1 101.735 99.7935 98.0415
129 65 1 98.9326 98.9093 100.152
130 65 1 99.8483 99.6404 100.396
131 66 1 99.7726 98.3066 100.502
132 66 1 98.8836 98.4462 101.206
133 67 1 100.522 100.023 99.6866
134 67 1 101.508 99.3679 99.7193
135 68 1 97.6807 101.313 99.8756
136 68 1 98.3498 101.788 100.769
137 69 1 99.8341 101.562 101.264
138 69 1 99.199 101.189 100.361
139 70 1 100.165 100.09 98.6356
140 70 1 100.896 100.924 99.2988
141 71 1 101.37 100.406 97.241
142 71 1 101.706 101.375 97.7933
143 72 1 101.232 101.999 98.5553
144 72 1 102.36 101.681 98.652
145 73 1 99.4627 98.4217 99.3094
146 73 1 100.493 99.0247 99.1978
147 74 1 98.3619 99.5286 99.3796
148 74 1 99.5567 99.5135 99.2877
149 75 1 100.273 99.9102 101.413
150 75 1 101.237 99.2196 101.237
151 76 1 99.6424 100.693 99.3371
152 76 1 99.6896 100.821 98.0769
153 77 1 100.23 101.466 98.739
154 77 1 99.4737 101.886 97.9828
155 78 1 102.941 97.1451 99.1576
156 78 1 101.936 102.571 99.4928
157 79 1 100.891 102.056 99.612
158 79 1 100.985 97.1615 98.995
159 80 1 101.144 97.4363 97.0043
160 80 1 101.737 97.3696 101.966
161 81 2 98.7894 100.176 101.965
162 82 2 98.7416 101.917 99.7721
163 83 2 101.601 102.298 100.554
164 84 2 98.47 101.207 102.728
165 85 2 101.927 97.5877 100.907
166 86 2 97.8418 97.4228 98.5561
167 87 2 102.103 98.6282 101.541
168 88 2 99.597 102.795 102.827
169 89 2 98.3124 98.0658 100.361
170 90 2 100.464 102.159 100.583
171 91 2 102.377 100.709 100.709
172 92 2 99.3785 102.293 100.554
173 93 2 98.169 102.755 102.412
174 94 2 102.042 99.663 100.668
175 95 2 99.8205 98.4478 98.1889
176 96 2 102.463 98.8479 99.6427
177 97 2 102.145 97.602 97.3451
178 98 2 99.7501 100.79 102.053
179 99 2 97.581 100.681 97.7719
180 100 2 102.045 97.965 98.7806
181 101 2 102.264 101.676 102.777
182 102 2 98.2597 98.3508 99.3225
183 103 2 101.881 101.448 99.5471
184 104 2 101.386 102.25 102.481
185 105 2 97.2464 102.27 98.3724
186 106 2 100.371 97.9366 99.6976
187 107 2 100.224 100.816 100.366
188 108 2 102.863 97.9636 101.247
189 109 2 98.913 100.033 100.147
190 110 2 100.247 99.927 97.4647
191 111 2 97.8077 99.1394 102.87
192 112 2 100.463 102.494 97.3336
193 113 2 102.759 101.792 101.842
194 114 2 100.886 100.672 98.1152
195 115 2 100.533 101.561 97.7237
196 116 2 98.6715 101.046 97.8631
197 117 2 98.5232 102.831 100.291
198 118 2 101.396 97.4736 98.0906
199 119 2 100.612 98.8538 102.227
200 120 2 100.711 98.9916 100.222
ITEM: TIMESTEP
3000
ITEM: NUMBER OF ATOMS
200
ITEM: BOX BOUNDS pp pp pp
9.6945637182842191e+01 1.0305436281715781e+02
9.7035907246252563e+01 1.0296409275374744e+02
9.7035907246252563e+01 1.0296409275374744e+02
ITEM: ATOMS id mol type x y z
1 1 1 102.882 99.0291 100.718
2 1 1 97.3168 100.072 100.937
3 2 1 102.989 101.482 97.6834
4 2 1 102.936 100.683 98.5871
5 3 1 98.9387 100.149 98.7156
6 3 1 98.8453 98.9689 98.6102
7 4 1 98.0466 100.214 102.856
8 4 1 97.8419 100.735 101.783
9 5 1 99.4536 98.6244 102.277
10 5 1 99.3731 99.4204 101.445
11 6 1 99.9618 98.9934 97.2274
12 6 1 98.8956 99.4833 102.831
13 7 1 97.7481 98.7497 101.165
14 7 1 98.2539 97.8112 101.623
15 8 1 102.833 100.898 99.6208
16 8 1 102.952 102.033 99.4025
17 9 1 100.273 101.846 102.293
18 9 1 101.283 101.205 102.324
19 10 1 101.789 100.452 99.7705
20 10 1 101.827 100.746 98.6325
21 11 1 97.9421 102.327 99.1649
22 11 1 97.7323 97.4586 99.6809
23 12 1 102.588 97.9559 102.338
24 12 1 97.2712 103.057 101.89
25 13 1 97.9626 101.878 101.853
26 13 1 97.281 101.292 101.015
27 14 1 100.607 102.9 102.197
28 14 1 101.098 97.1013 101.169
29 15 1 98.4811 100.861 99.5617
30 15 1 97.7417 101.356 98.7286
31 16 1 100.355 97.5371 97.8915
32 16 1 99.4462 97.9896 97.3177
33 17 1 102.795 99.0126 102.385
34 17 1 97.5394 98.2265 102.243
35 18 1 101.17 97.1716 100.088
36 18 1 101.393 98.2537 99.6089
37 19 1 102.14 100.468 102.407
38 19 1 102.422 100.52 97.6625
39 20 1 97.2149 98.2487 99.1365
40 20 1 102.605 98.881 98.3633
41 21 1 98.7633 98.7716 97.6281
42 21 1 97.8305 98.0679 97.5002
43 22 1 98.8716 97.9336 98.2989
44 22 1 98.7351 97.2151 99.1843
45 23 1 98.8862 101.315 98.7377
46 23 1 98.4964 102.369 98.2737
47 24 1 102.69 99.6761 101.598
48 24 1 101.727 99.4295 102.208
49 25 1 101.169 101.235 100.362
50 25 1 100.994 100.064 100.613
51 26 1 97.6016 102.388 100.112
52 26 1 102.622 102.865 100.375
53 27 1 102.085 102.718 98.4512
54 27 1 102.771 102.548 97.5466
55 28 1 97.6733 97.2841 100.819
56 28 1 97.0873 98.1337 100.224
57 29 1 97.3134 101.108 102.657
58 29 1 97.9328 101.668 97.5517
59 30 1 99.5168 101.456 102.902
60 30 1 99.0642 102.141 102.067
61 31 1 102.833 99.8799 99.9698
62 31 1 97.2496 99.3632 99.0384
63 32 1 98.8058 101.252 101.538
64 32 1 99.3967 100.386 101.024
65 33 1 100.39 100.852 102.851
66 33 1 99.8631 99.7824 102.398
67 34 1 100.791 98.3735 97.4433
68 34 1 100.839 98.2171 98.6375
69 35 1 97.2849 102.332 101.134
70 35 1 102.229 102.529 101.359
71 36 1 98.7588 102.236 97.1869
72 36 1 97.7541 102.733 97.6068
73 37 1 99.1684 97.562 102.129
74 37 1 100.213 97.8469 102.617
75 38 1 97.6063 99.7441 101.943
76 38 1 102.923 100.654 101.727
77 39 1 100.377 102.427 98.5029
78 39 1 100.079 102.791 99.632
79 40 1 101.146 98.1715 101.633
80 40 1 100.02 97.9151 101.581
81 41 1 98.6094 97.3583 97.3596
82 41 1 99.5003 102.834 97.9158
83 42 1 99.7925 102.696 101.494
84 42 1 98.5615 102.722 101.369
85 43 1 100.855 98.0129 100.624
86 43 1 100.272 98.8775 101.265
87 44 1 101.818 98.6017 100.49
88 44 1 102.323 97.7304 99.7545
89 45 1 99.3894 99.5919 97.9586
90 45 1 99.2694 100.439 97.0731
91 46 1 101.177 99.9138 98.9639
92 46 1 102.362 99.8079 99.0088
93 47 1 99.1337 97.5603 101.013
94 47 1 100.162 97.2467 100.614
95 48 1 97.7463 98.7249 98.2826
96 48 1 103.035 97.7978 98.1847
97 49 1 98.4207 99.5211 100.859
98 49 1 98.2417 100.73 100.746
99 50 1 102.908 98.424 97.3317
100 50 1 102.237 99.4422 97.2661
101 51 1 96.9329 100.021 102.734
102 51 1 97.183 99.5733 97.8782
103 52 1 97.7967 100.281 98.8645
104 52 1 98.2726 99.7277 97.9086
105 53 1 99.7156 97.4509 98.8071
106 53 1 99.3116 97.5865 99.9574
107 54 1 100.967 102.02 101.484
108 54 1 100.757 100.871 101.42
109 55 1 101.704 102.483 97.4378
110 55 1 102.469 102.692 102.461
111 56 1 98.5405 98.2346 102.666
112 56 1 98.4631 99.1254 101.918
113 57 1 101.13 99.357 97.1886
114 57 1 101.624 98.409 102.598
115 58 1 97.3012 102.164 102.721
116 58 1 97.2021 97.3807 102.919
117 59 1 101.604 98.9713 98.8138
118 59 1 101.791 98.5227 97.7393
119 60 1 97.6477 99.0762 100.083
120 60 1 97.7523 100.256 99.9624
121 61 1 100.834 100.144 102.216
122 61 1 101.669 100.434 101.466
123 62 1 101.935 101.451 101.399
124 62 1 102.646 101.788 100.452
125 63 1 99.8681 101.694 99.8206
126 63 1 99.3901 102.33 98.9451
127 64 1 100.699 99.1834 98.1756
128 64 1 101.716 99.8109 98.1041
129 65 1 98.9739 98.8855 100.028
130 65 1 99.8438 99.5489 100.433
131 66 1 99.7909 98.3247 100.492
132 66 1 98.8724 98.5693 101.138
133 67 1 100.479 100.021 99.7055
134 67 1 101.533 99.4005 99.775
135 68 1 97.6672 101.383 99.881
136 68 1 98.2335 101.848 100.785
137 69 1 99.8384 101.602 101.25
138 69 1 99.1291 101.227 100.369
139 70 1 100.18 100.054 98.6875
140 70 1 100.877 100.912 99.3076
141 71 1 101.41 100.342 97.2294
142 71 1 101.568 101.436 97.6912
143 72 1 101.184 101.741 98.622
144 72 1 102.325 101.646 98.4956
145 73 1 99.4782 98.3726 99.2131
146 73 1 100.515 99.0422 99.2314
147 74 1 98.3191 99.4903 99.4053
148 74 1 99.5633 99.4568 99.2764
149 75 1 100.292 99.9295 101.356
150 75 1 101.261 99.2536 101.295
151 76 1 99.6276 100.678 99.3582
152 76 1 99.6619 100.799 98.1116
153 77 1 100.131 101.44 98.8064
154 77 1 99.4147 101.801 97.975
155 78 1 102.942 97.1879 99.0626
156 78 1 101.991 102.613 99.5154
157 79 1 100.869 102.088 99.6155
158 79 1 101.12 97.1431 98.9639
159 80 1 101.198 97.4247 96.9911
160 80 1 101.819 97.4009 101.885
161 81 2 98.7333 100.233 101.99
162 82 2 98.72 102.008 99.7596
163 83 2 101.628 102.242 100.551
164 84 2 98.4604 101.178 102.665
165 85 2 101.961 97.6378 100.862
166 86 2 97.8348 97.3966 98.5165
167 87 2 102.087 98.6548 101.551
168 88 2 99.6017 102.757 102.776
169 89 2 98.2797 98.1201 100.389
170 90 2 100.503 102.201 100.584
171 91 2 102.45 100.752 100.742
172 92 2 99.3341 102.332 100.608
173 93 2 98.1682 102.84 102.397
174 94 2 102.11 99.6997 100.747
175 95 2 99.8276 98.493 98.1802
176 96 2 102.452 98.7887 99.6242
177 97 2 102.211 97.58 97.3819
178 98 2 99.7798 100.806 101.991
179 99 2 97.5491 100.634 97.7869
180 100 2 102.045 97.9396 98.7622
181 101 2 102.319 101.573 102.853
182 102 2 98.3194 98.2886 99.2726
183 103 2 101.89 101.521 99.5271
184 104 2 101.491 102.287 102.357
185 105 2 97.2215 102.27 98.368
186 106 2 100.423 97.8798 99.6147
187 107 2 100.133 100.749 100.404
188 108 2 102.924 98.0125 101.253
189 109 2 98.9615 100.073 100.092
190 110 2 100.249 100.014 97.4957
191 111 2 97.7695 99.1392 102.936
192 112 2 100.511 102.445 97.287
193 113 2 102.805 101.786 101.94
194 114 2 100.874 100.686 98.1558
195 115 2 100.396 101.51 97.7407
196 116 2 98.6363 100.925 97.8141
197 117 2 98.4759 102.892 100.249
198 118 2 101.376 97.5155 97.9864
199 119 2 100.606 98.8202 102.278
200 120 2 100.724 99.0006 100.244
ITEM: TIMESTEP
4000
ITEM: NUMBER OF ATOMS
200
ITEM: BOX BOUNDS pp pp pp
9.6914940326194085e+01 1.0308505967380592e+02
9.7035907246252563e+01 1.0296409275374744e+02
9.7035907246252563e+01 1.0296409275374744e+02
ITEM: ATOMS id mol type x y z
1 1 1 102.88 98.9135 100.76
2 1 1 97.2507 99.9822 100.952
3 2 1 103.026 101.497 97.7057
4 2 1 102.883 100.736 98.6032
5 3 1 98.8235 100.166 98.6869
6 3 1 98.7779 99.0048 98.5645
7 4 1 98.0041 100.243 102.876
8 4 1 97.8898 100.759 101.765
9 5 1 99.4429 98.5909 102.248
10 5 1 99.3362 99.4806 101.471
11 6 1 99.939 99.0131 97.1742
12 6 1 98.8643 99.5162 102.802
13 7 1 97.6275 98.7787 101.298
14 7 1 98.3177 97.8246 101.56
15 8 1 102.93 100.817 99.6379
16 8 1 96.9103 101.969 99.3397
17 9 1 100.35 101.755 102.195
18 9 1 101.349 101.143 102.383
19 10 1 101.815 100.478 99.7692
20 10 1 101.802 100.788 98.6401
21 11 1 97.9527 102.335 99.1271
22 11 1 97.77 97.4696 99.6852
23 12 1 102.527 97.7446 102.251
24 12 1 97.2108 97.0254 101.845
25 13 1 97.9508 101.841 101.828
26 13 1 97.2866 101.206 100.997
27 14 1 100.612 102.825 102.191
28 14 1 101.019 97.1457 101.119
29 15 1 98.4484 100.811 99.5281
30 15 1 97.7542 101.35 98.7206
31 16 1 100.326 97.5299 97.9391
32 16 1 99.4474 98.0216 97.2945
33 17 1 102.758 98.8455 102.499
34 17 1 97.4614 98.1278 102.201
35 18 1 101.173 97.2333 100.063
36 18 1 101.328 98.3545 99.6091
37 19 1 102.207 100.368 102.422
38 19 1 102.371 100.604 97.6198
39 20 1 97.2139 98.1981 99.1215
40 20 1 102.623 98.8634 98.5256
41 21 1 98.7227 98.7144 97.5862
42 21 1 97.7435 98.0274 97.5946
43 22 1 98.8508 97.9948 98.341
44 22 1 98.6888 97.1536 99.168
45 23 1 98.8812 101.342 98.7397
46 23 1 98.5211 102.38 98.2519
47 24 1 102.79 99.5246 101.718
48 24 1 101.682 99.4212 102.18
49 25 1 101.278 101.335 100.34
50 25 1 101.1 100.193 100.631
51 26 1 97.5996 102.422 100.066
52 26 1 102.833 97.1041 100.417
53 27 1 102.287 102.867 98.4338
54 27 1 102.812 102.52 97.5018
55 28 1 97.6785 97.3136 100.838
56 28 1 97.0423 98.0876 100.143
57 29 1 97.3423 101.091 102.637
58 29 1 97.924 101.676 97.643
59 30 1 99.5217 101.517 102.823
60 30 1 99.0723 102.234 102.045
61 31 1 102.799 99.7794 100.062
62 31 1 97.219 99.3195 99.1575
63 32 1 98.85 101.296 101.539
64 32 1 99.334 100.404 100.966
65 33 1 100.374 100.856 102.807
66 33 1 99.8853 99.7568 102.383
67 34 1 100.814 98.3322 97.4426
68 34 1 100.786 98.2327 98.6417
69 35 1 97.3846 102.246 101.041
70 35 1 102.485 102.597 101.365
71 36 1 98.6846 102.238 97.1258
72 36 1 97.7487 102.784 97.6024
73 37 1 99.2227 97.4812 102.076
74 37 1 100.238 97.8189 102.595
75 38 1 97.6873 99.7461 101.907
76 38 1 103.033 100.592 101.781
77 39 1 100.411 102.498 98.4767
78 39 1 100.069 102.775 99.603
79 40 1 101.208 97.9939 101.799
80 40 1 100.053 97.9249 101.558
81 41 1 98.6419 97.3767 97.5165
82 41 1 99.5319 102.766 97.9678
83 42 1 99.8027 102.701 101.443
84 42 1 98.5829 102.75 101.28
85 43 1 100.864 98.1067 100.743
86 43 1 100.159 98.9116 101.257
87 44 1 101.857 98.6034 100.504
88 44 1 102.176 97.6985 99.7879
89 45 1 99.3294 99.5922 97.8919
90 45 1 99.3215 100.461 97.0731
91 46 1 101.205 100.013 99.0134
92 46 1 102.386 99.7728 98.9851
93 47 1 99.1599 97.6085 100.968
94 47 1 100.161 97.2848 100.546
95 48 1 97.6492 98.7881 98.2811
96 48 1 103.044 97.7674 98.2073
97 49 1 98.3139 99.5725 100.92
98 49 1 98.2733 100.764 100.717