ITEM: TIMESTEP
0
ITEM: NUMBER OF ATOMS
200
ITEM: BOX BOUNDS pp pp pp
9.7031316579642663e+01 1.0296868342035734e+02
9.7031316579642663e+01 1.0296868342035734e+02
9.7031316579642663e+01 1.0296868342035734e+02
ITEM: ATOMS id mol type x y z
1 1 1 102.123 99.6336 101.962
2 1 1 101.543 99.7821 100.998
3 2 1 101.727 101.972 98.6155
4 2 1 100.565 102.262 98.3527
5 3 1 101.263 100.038 98.2562
6 3 1 100.494 99.2174 97.8832
7 4 1 98.8148 100.539 101.839
8 4 1 98.694 101.727 101.57
9 5 1 100.557 99.9267 97.0409
10 5 1 99.6844 99.1908 97.218
11 6 1 99.8674 97.146 102.54
12 6 1 99.8942 97.3075 101.293
13 7 1 98.0733 102.666 102.901
14 7 1 98.2854 97.7864 102.485
15 8 1 102.874 100.479 99.2825
16 8 1 102.859 101.649 99.1957
17 9 1 101.33 101.44 102.608
18 9 1 102.296 102.122 102.442
19 10 1 102.281 101.552 100.338
20 10 1 101.818 102.349 99.6424
21 11 1 97.2359 97.7419 98.5291
22 11 1 97.8049 97.645 97.4821
23 12 1 97.2339 98.9936 100.453
24 12 1 97.5419 98.1625 101.182
25 13 1 98.7355 99.6807 101.217
26 13 1 97.6742 99.209 101.41
27 14 1 99.4952 101.627 100.803
28 14 1 98.3489 101.702 100.423
29 15 1 97.7017 102.218 98.6817
30 15 1 98.0187 101.497 97.7489
31 16 1 101.132 102.418 102.879
32 16 1 100.675 102.855 101.892
33 17 1 102.111 97.7408 101.059
34 17 1 102.453 97.6526 102.132
35 18 1 101.858 98.6059 99.5775
36 18 1 101.679 97.5177 100.083
37 19 1 97.0518 102.896 102.723
38 19 1 102.74 102.747 101.537
39 20 1 102.283 97.7062 99.1939
40 20 1 102.48 98.4354 98.2537
41 21 1 99.0898 98.4437 98.7457
42 21 1 99.3322 97.3763 98.4777
43 22 1 99.6216 98.2456 97.821
44 22 1 99.0252 98.491 102.721
45 23 1 98.3024 97.5771 98.4483
46 23 1 98.4121 102.492 97.9327
47 24 1 101.427 98.8217 101.529
48 24 1 100.402 98.2098 101.717
49 25 1 99.8143 101.701 99.0367
50 25 1 100.44 101.002 99.7243
51 26 1 102.597 102.886 100.089
52 26 1 101.626 102.576 100.778
53 27 1 100.672 98.1922 97.7419
54 27 1 101.16 97.0997 97.8392
55 28 1 98.0282 102.45 101.089
56 28 1 98.4448 97.5822 101.17
57 29 1 102.238 101.213 97.1939
58 29 1 97.2654 101.894 97.0805
59 30 1 99.0418 101.471 97.5284
60 30 1 98.318 101.705 102.578
61 31 1 102.763 99.7513 101.109
62 31 1 102.117 98.9386 100.589
63 32 1 99.8055 100.995 101.569
64 32 1 99.6084 100.355 102.601
65 33 1 99.2112 97.7593 101.926
66 33 1 99.9937 98.1448 102.785
67 34 1 100.101 98.6313 98.6289
68 34 1 100.472 97.4749 98.6444
69 35 1 98.0604 98.9129 102.848
70 35 1 98.5754 98.3403 97.7654
71 36 1 97.7509 101.342 101.178
72 36 1 97.5576 102.179 102.003
73 37 1 99.203 102.381 97.0491
74 37 1 99.3486 101.375 102.406
75 38 1 98.3659 98.513 101.785
76 38 1 97.3555 98.2404 102.304
77 39 1 99.4254 102.319 98.1516
78 39 1 98.6306 102.651 99.0163
79 40 1 100.184 98.1666 100.569
80 40 1 99.4058 98.6727 101.306
81 41 1 100.476 102.392 100.994
82 41 1 101.009 97.4944 101.07
83 42 1 98.4082 101.696 99.3782
84 42 1 97.5283 102.272 99.8152
85 43 1 101.177 98.4694 100.52
86 43 1 100.419 99.1295 101.146
87 44 1 100.464 99.732 100.174
88 44 1 100.067 98.813 99.701
89 45 1 100.279 100.229 98.0902
90 45 1 100.409 101.009 97.1734
91 46 1 102.08 99.2567 98.7757
92 46 1 102.959 98.5311 99.2163
93 47 1 99.0809 102.61 100.966
94 47 1 99.9833 97.1102 100.257
95 48 1 97.1093 100.508 98.1739
96 48 1 97.564 99.747 97.3573
97 49 1 98.053 99.83 102.235
98 49 1 97.8639 100.282 101.14
99 50 1 99.837 100.674 98.9176
100 50 1 100.798 100.075 99.2331
101 51 1 98.5247 100.662 102.877
102 51 1 97.3647 100.864 97.2251
103 52 1 97.7857 101.096 98.7745
104 52 1 98.9369 101.367 98.537
105 53 1 98.9824 98.6848 99.8379
106 53 1 97.9018 98.1095 100.012
107 54 1 100.179 101.934 100.077
108 54 1 99.2952 101.224 99.8199
109 55 1 101.354 97.8773 101.993
110 55 1 102.038 98.6238 102.437
111 56 1 98.7151 99.6668 97.2198
112 56 1 98.2346 100.441 97.9879
113 57 1 102.488 100.175 102.899
114 57 1 101.568 99.5353 102.899
115 58 1 102.745 97.9713 97.2439
116 58 1 97.5413 98.6176 97.8577
117 59 1 101.678 98.1414 97.3915
118 59 1 102.201 97.3707 98.068
119 60 1 99.1575 97.7958 100.445
120 60 1 98.4124 98.6938 100.761
121 61 1 100.767 100.771 102.03
122 61 1 100.59 101.337 100.962
123 62 1 101.248 101.711 100.272
124 62 1 101.224 100.5 100.216
125 63 1 100.844 97.5253 102.837
126 63 1 100.057 97.175 97.7109
127 64 1 102.253 99.9294 97.9417
128 64 1 101.501 99.007 97.9268
129 65 1 98.2847 99.3266 98.0782
130 65 1 97.8296 100.029 98.9199
131 66 1 101.028 99.6646 101.984
132 66 1 100.97 98.6621 102.643
133 67 1 99.7037 99.9405 101.502
134 67 1 99.5042 99.3858 100.497
135 68 1 97.5125 97.2972 100.607
136 68 1 97.1108 102.11 100.748
137 69 1 99.2994 100.155 99.7651
138 69 1 98.7318 99.3671 99.1029
139 70 1 101.884 100.663 102.124
140 70 1 97.067 100.257 101.968
141 71 1 102.044 100.933 98.31
142 71 1 100.956 100.975 98.7062
143 72 1 101.16 101.546 97.7449
144 72 1 102.092 102.28 97.5834
145 73 1 98.0231 98.5392 98.7903
146 73 1 98.6666 97.7212 99.4294
147 74 1 97.7761 99.1596 99.585
148 74 1 97.3461 100.095 100.198
149 75 1 101.228 101.861 101.574
150 75 1 101.667 100.897 101.067
151 76 1 98.849 100.332 98.8178
152 76 1 99.8531 99.5999 99.0397
153 77 1 101.489 99.5069 99.9627
154 77 1 102.61 99.4501 99.6713
155 78 1 102.63 102.677 98.9464
156 78 1 101.452 102.949 98.8597
157 79 1 100.867 101.893 99.25
158 79 1 99.9447 102.694 99.1583
159 80 1 102.243 101.808 101.383
160 80 1 102.817 101.266 102.208
161 81 2 99.0558 99.3883 102.16
162 82 2 97.5847 97.277 99.3805
163 83 2 100.903 102.79 99.8918
164 84 2 98.7674 100.818 100.837
165 85 2 100.863 97.9406 99.5323
166 86 2 98.9465 97.4363 97.3277
167 87 2 102.605 98.7173 101.514
168 88 2 99.5896 102.343 101.791
169 89 2 98.3551 102.886 100.112
170 90 2 99.2387 102.325 99.9394
171 91 2 102.248 100.384 100.266
172 92 2 97.3209 101.139 100.083
173 93 2 98.64 102.716 102.009
174 94 2 99.7799 100.555 100.599
175 95 2 99.353 99.4528 98.1413
176 96 2 102.751 98.0218 100.278
177 97 2 102.518 99.0647 97.4154
178 98 2 100.322 101.835 102.246
179 99 2 102.86 101.628 98.1063
180 100 2 101.443 98.1185 98.6329
181 101 2 101.882 97.2454 102.867
182 102 2 97.1756 99.3612 98.5494
183 103 2 101.792 101.194 99.4306
184 104 2 102.769 100.846 101.092
185 105 2 97.2369 102.73 97.8721
186 106 2 99.7732 97.8884 99.3908
187 107 2 98.2224 100.73 99.7828
188 108 2 97.6435 97.2764 101.895
189 109 2 98.4652 99.7565 100.199
190 110 2 101.425 100.56 97.3102
191 111 2 99.3351 100.476 97.7829
192 112 2 101.711 102.764 101.821
193 113 2 97.0556 99.3377 102.391
194 114 2 100.952 99.0404 99.0214
195 115 2 100.051 101.32 98.0997
196 116 2 101.828 100.199 99.2232
197 117 2 100.185 102.124 97.3463
198 118 2 97.8688 100.886 102.072
199 119 2 100.08 99.1821 102.197
200 120 2 100.652 100.301 101.092
ITEM: TIMESTEP
1000
ITEM: NUMBER OF ATOMS
200
ITEM: BOX BOUNDS pp pp pp
9.7001480815248073e+01 1.0299851918475193e+02
9.7031316579642663e+01 1.0296868342035734e+02
9.7031316579642663e+01 1.0296868342035734e+02
ITEM: ATOMS id mol type x y z
1 1 1 102.073 99.6212 101.969
2 1 1 101.526 99.7657 100.952
3 2 1 101.761 101.964 98.5469
4 2 1 100.602 102.286 98.306
5 3 1 101.197 99.9665 98.2453
6 3 1 100.456 99.1348 97.8772
7 4 1 98.7575 100.5 101.878
8 4 1 98.7374 101.663 101.549
9 5 1 100.578 99.9232 97.0259
10 5 1 99.6904 99.2418 97.235
11 6 1 99.8968 97.0822 102.478
12 6 1 99.8829 97.3572 101.285
13 7 1 98.0466 102.683 102.912
14 7 1 98.2869 97.7883 102.517
15 8 1 102.897 100.545 99.2801
16 8 1 102.891 101.703 99.2509
17 9 1 101.399 101.406 102.583
18 9 1 102.343 102.139 102.402
19 10 1 102.346 101.533 100.277
20 10 1 101.938 102.329 99.5861
21 11 1 97.2193 97.7568 98.5407
22 11 1 97.7405 97.65 97.4612
23 12 1 97.2453 99.0367 100.483
24 12 1 97.452 98.1361 101.175
25 13 1 98.7061 99.6062 101.259
26 13 1 97.6286 99.2181 101.465
27 14 1 99.536 101.655 100.794
28 14 1 98.4279 101.713 100.442
29 15 1 97.6623 102.242 98.6884
30 15 1 98.0623 101.52 97.8021
31 16 1 101.147 102.404 102.81
32 16 1 100.702 102.845 101.836
33 17 1 102.084 97.6807 101.043
34 17 1 102.528 97.685 102.094
35 18 1 101.798 98.578 99.6011
36 18 1 101.732 97.5052 100.054
37 19 1 97.0367 102.918 102.703
38 19 1 102.784 102.736 101.547
39 20 1 102.315 97.6499 99.1604
40 20 1 102.441 98.4065 98.2678
41 21 1 99.0075 98.4589 98.791
42 21 1 99.3797 97.4016 98.5528
43 22 1 99.6152 98.2525 97.8234
44 22 1 99.0213 98.4639 102.791
45 23 1 98.3303 97.6053 98.4471
46 23 1 98.393 102.483 97.9463
47 24 1 101.417 98.7395 101.342
48 24 1 100.452 98.158 101.691
49 25 1 99.8244 101.76 99.0516
50 25 1 100.478 101.037 99.7022
51 26 1 102.681 102.911 100.001
52 26 1 101.815 102.482 100.699
53 27 1 100.69 98.1215 97.7641
54 27 1 101.196 97.0312 97.7748
55 28 1 98.0526 102.437 101.081
56 28 1 98.4402 97.6361 101.187
57 29 1 102.305 101.247 97.1971
58 29 1 97.2757 101.894 97.0405
59 30 1 99.102 101.533 97.5201
60 30 1 98.3513 101.754 102.59
61 31 1 102.736 99.7545 101.128
62 31 1 102.129 98.9831 100.533
63 32 1 99.71 100.917 101.571
64 32 1 99.564 100.329 102.63
65 33 1 99.1817 97.7199 101.974
66 33 1 100.005 98.1229 102.762
67 34 1 100.053 98.6007 98.6856
68 34 1 100.489 97.4585 98.564
69 35 1 98.0469 98.9136 102.844
70 35 1 98.5882 98.3957 97.8113
71 36 1 97.7505 101.289 101.11
72 36 1 97.5456 102.12 101.952
73 37 1 99.1295 102.452 97.0304
74 37 1 99.3465 101.382 102.448
75 38 1 98.3642 98.492 101.797
76 38 1 97.3497 98.2492 102.343
77 39 1 99.4922 102.377 98.1501
78 39 1 98.6542 102.691 98.9663
79 40 1 100.161 98.1677 100.574
80 40 1 99.3957 98.6405 101.401
81 41 1 100.442 102.356 100.947
82 41 1 101.047 97.4669 100.964
83 42 1 98.3502 101.723 99.414
84 42 1 97.5576 102.298 99.8647
85 43 1 101.062 98.7631 100.308
86 43 1 100.38 99.1432 101.169
87 44 1 100.565 99.72 100.233
88 44 1 100.055 98.8486 99.7554
89 45 1 100.23 100.169 98.0168
90 45 1 100.37 101.011 97.1789
91 46 1 102.06 99.24 98.8032
92 46 1 102.918 98.5378 99.2527
93 47 1 99.0727 102.636 100.94
94 47 1 99.9868 97.1214 100.263
95 48 1 97.1236 100.536 98.1941
96 48 1 97.5173 99.7347 97.4166
97 49 1 97.9895 99.8447 102.31
98 49 1 97.8433 100.222 101.146
99 50 1 99.8625 100.666 98.9104
100 50 1 100.842 100.122 99.2212
101 51 1 98.5204 100.712 102.915
102 51 1 97.3615 100.881 97.2343
103 52 1 97.7846 101.134 98.7623
104 52 1 98.9085 101.43 98.5832
105 53 1 98.9258 98.7049 99.8159
106 53 1 97.8658 98.1385 100.048
107 54 1 100.178 101.951 100.034
108 54 1 99.3184 101.215 99.8233
109 55 1 101.426 97.8786 101.944
110 55 1 102.117 98.6615 102.446
111 56 1 98.7089 99.7125 97.2675
112 56 1 98.167 100.444 97.992
113 57 1 102.559 100.163 102.981
114 57 1 101.564 99.4806 102.964
115 58 1 102.701 97.9994 97.2549
116 58 1 97.4852 98.5984 97.8504
117 59 1 101.651 98.1253 97.4012
118 59 1 102.2 97.4017 98.1005
119 60 1 99.1587 97.8224 100.431
120 60 1 98.3882 98.7025 100.77
121 61 1 100.651 100.655 102.109
122 61 1 100.543 101.292 101.013
123 62 1 101.239 101.695 100.294
124 62 1 101.223 100.519 100.22
125 63 1 100.854 97.5123 102.764
126 63 1 100.012 97.225 97.6029
127 64 1 102.223 99.9689 97.9755
128 64 1 101.508 98.9889 97.962
129 65 1 98.1894 99.3458 98.1403
130 65 1 97.7638 100.057 98.957
131 66 1 101.005 99.5887 101.988
132 66 1 100.928 98.6451 102.732
133 67 1 99.6539 99.8942 101.597
134 67 1 99.4968 99.4212 100.516
135 68 1 97.4657 97.2322 100.637
136 68 1 97.0964 102.057 100.793
137 69 1 99.3177 100.122 99.724
138 69 1 98.6555 99.3889 99.1056
139 70 1 101.951 100.629 102.145
140 70 1 97.0414 100.216 102.001
141 71 1 102.094 101.037 98.2688
142 71 1 100.995 100.994 98.7166
143 72 1 101.167 101.595 97.7137
144 72 1 102.084 102.331 97.5888
145 73 1 97.9434 98.5388 98.8076
146 73 1 98.6161 97.748 99.4563
147 74 1 97.7691 99.1899 99.607
148 74 1 97.3014 100.127 100.221
149 75 1 101.247 101.849 101.485
150 75 1 101.704 100.843 101.118
151 76 1 98.8522 100.354 98.8188
152 76 1 99.8522 99.6297 98.9662
153 77 1 101.58 99.5721 99.865
154 77 1 102.734 99.494 99.6354
155 78 1 102.649 102.657 98.8405
156 78 1 101.474 102.972 98.799
157 79 1 100.916 101.935 99.2602
158 79 1 100.038 102.72 99.2041
159 80 1 102.288 101.753 101.391
160 80 1 102.851 101.213 102.217
161 81 2 98.989 99.3556 102.257
162 82 2 97.6198 97.3312 99.3835
163 83 2 100.951 102.807 99.8891
164 84 2 98.7843 100.709 100.827
165 85 2 100.802 97.9099 99.564
166 86 2 98.9198 97.4727 97.3752
167 87 2 102.617 98.6657 101.474
168 88 2 99.6087 102.3 101.768
169 89 2 98.3385 102.927 100.135
170 90 2 99.2377 102.382 99.9114
171 91 2 102.256 100.366 100.212
172 92 2 97.3773 101.147 100.113
173 93 2 98.608 102.727 101.961
174 94 2 99.7903 100.549 100.566
175 95 2 99.2723 99.4261 98.157
176 96 2 102.782 98.0163 100.249
177 97 2 102.502 99.1056 97.5219
178 98 2 100.356 101.784 102.208
179 99 2 102.944 101.685 98.0925
180 100 2 101.43 98.136 98.695
181 101 2 101.883 97.2443 102.771
182 102 2 97.0981 99.3499 98.5259
183 103 2 101.826 101.171 99.4388
184 104 2 102.816 100.823 101.096
185 105 2 97.1984 102.746 97.8224
186 106 2 99.7558 97.9048 99.4304
187 107 2 98.2603 100.69 99.7973
188 108 2 97.6435 97.2613 101.902
189 109 2 98.462 99.7219 100.223
190 110 2 101.457 100.566 97.3462
191 111 2 99.2886 100.534 97.8575
192 112 2 101.743 102.738 101.75
193 113 2 96.965 99.2803 102.523
194 114 2 100.92 99.0634 99.0053
195 115 2 100.04 101.339 98.0985
196 116 2 101.92 100.222 99.0991
197 117 2 100.176 102.091 97.3123
198 118 2 97.8308 100.925 102.11
199 119 2 100.072 99.1327 102.23
200 120 2 100.638 100.289 101.122
ITEM: TIMESTEP
2000
ITEM: NUMBER OF ATOMS
200
ITEM: BOX BOUNDS pp pp pp
9.6971345196436232e+01 1.0302865480356377e+02
9.7031316579642663e+01 1.0296868342035734e+02
9.7031316579642663e+01 1.0296868342035734e+02
ITEM: ATOMS id mol type x y z
1 1 1 102.104 99.68 101.973
2 1 1 101.599 99.7559 100.887
3 2 1 101.727 101.987 98.5644
4 2 1 100.606 102.335 98.3506
5 3 1 101.204 100.188 98.0787
6 3 1 100.463 99.2216 98.0371
7 4 1 98.875 100.478 101.944
8 4 1 98.6768 101.641 101.563
9 5 1 100.672 99.9121 97.0272
10 5 1 99.7207 99.2357 97.25
11 6 1 99.7676 97.2105 102.492
12 6 1 99.9134 97.3215 101.313
13 7 1 98.0174 102.706 102.906
14 7 1 98.293 97.7961 102.469
15 8 1 102.922 100.749 99.2319
16 8 1 102.918 101.904 99.4141
17 9 1 101.447 101.539 102.511
18 9 1 102.447 102.147 102.441
19 10 1 102.382 101.522 100.321
20 10 1 101.936 102.391 99.6865
21 11 1 97.1507 97.7222 98.4967
22 11 1 97.699 97.699 97.4033
23 12 1 97.0615 99.0274 100.425
24 12 1 97.4637 98.2135 101.161
25 13 1 98.6576 99.6161 101.285
26 13 1 97.5683 99.2529 101.448
27 14 1 99.5323 101.601 100.9
28 14 1 98.4535 101.725 100.447
29 15 1 97.6516 102.226 98.6912
30 15 1 98.0162 101.47 97.8005
31 16 1 101.086 102.441 102.963
32 16 1 100.613 102.782 101.935
33 17 1 102.07 97.8059 101.045
34 17 1 102.522 97.734 102.113
35 18 1 101.833 98.5283 99.5378
36 18 1 101.761 97.489 100.089
37 19 1 96.9957 102.942 102.695
38 19 1 102.723 102.793 101.543
39 20 1 102.365 97.612 99.1518
40 20 1 102.484 98.4336 98.2472
41 21 1 98.9387 98.4342 98.7294
42 21 1 99.2807 97.3862 98.4575
43 22 1 99.5532 98.3662 97.8508
44 22 1 99.0147 98.4825 102.727
45 23 1 98.1925 97.5437 98.3554
46 23 1 98.465 102.428 97.8906
47 24 1 101.413 98.7439 101.405
48 24 1 100.418 98.1416 101.795
49 25 1 99.8951 101.664 99.041
50 25 1 100.346 100.852 99.7236
51 26 1 102.779 102.869 100.051
52 26 1 101.913 102.597 100.802
53 27 1 100.603 98.2175 97.795
54 27 1 101.193 97.1555 97.894
55 28 1 98.0201 102.419 101.077
56 28 1 98.3772 97.6073 101.243
57 29 1 102.365 101.252 97.1784
58 29 1 97.3149 101.834 97.0558
59 30 1 99.0868 101.503 97.518
60 30 1 98.2957 101.716 102.602
61 31 1 102.688 99.7092 101.081
62 31 1 102.087 98.835 100.555
63 32 1 99.8066 100.874 101.655
64 32 1 99.638 100.295 102.694
65 33 1 99.2566 97.875 101.9
66 33 1 99.9678 98.2091 102.803
67 34 1 99.9794 98.6136 98.7411
68 34 1 100.369 97.4945 98.5987
69 35 1 98.0115 98.8741 102.775
70 35 1 98.4974 98.3639 97.7584
71 36 1 97.6988 101.345 101.089
72 36 1 97.479 102.131 101.963
73 37 1 99.1057 102.418 102.937
74 37 1 99.2832 101.352 102.45
75 38 1 98.3897 98.572 101.78
76 38 1 97.3473 98.2474 102.289
77 39 1 99.4914 102.314 98.2206
78 39 1 98.5835 102.668 98.9703
79 40 1 100.247 98.1247 100.677
80 40 1 99.4091 98.7416 101.327
81 41 1 100.351 102.341 100.999
82 41 1 101.048 97.3794 101.066
83 42 1 98.4382 101.695 99.3615
84 42 1 97.6535 102.323 99.9715
85 43 1 101.031 98.8254 100.27
86 43 1 100.398 99.0901 101.182
87 44 1 100.501 99.8149 100.063
88 44 1 100.074 98.7534 99.7741
89 45 1 100.183 100.209 97.9544
90 45 1 100.472 100.964 97.089
91 46 1 102.066 99.2449 98.7814
92 46 1 102.951 98.572 99.2432
93 47 1 99.1017 102.58 100.962
94 47 1 99.9438 97.1306 100.275
95 48 1 97.0516 100.485 98.2145
96 48 1 97.5516 99.712 97.3755
97 49 1 98.0075 99.8462 102.265
98 49 1 97.7843 100.248 101.149
99 50 1 99.8211 100.642 98.8785
100 50 1 100.827 100.045 99.1228
101 51 1 98.4541 100.648 102.895
102 51 1 97.3717 100.816 97.2868
103 52 1 97.7797 101.126 98.7567
104 52 1 98.964 101.36 98.5413
105 53 1 98.9429 98.5843 99.8644
106 53 1 97.8043 98.1276 100.007
107 54 1 100.259 101.829 100.108
108 54 1 99.3098 101.216 99.8361
109 55 1 101.457 97.8765 102.008
110 55 1 102.18 98.7097 102.478
111 56 1 98.616 99.6141 97.2649
112 56 1 98.1001 100.408 98.0154
113 57 1 102.603 100.188 102.922
114 57 1 101.631 99.534 102.923
115 58 1 102.708 98.0498 97.2116
116 58 1 97.4581 98.622 97.8247
117 59 1 101.66 98.1407 97.4009
118 59 1 102.261 97.3749 98.0064
119 60 1 99.2128 97.8667 100.629
120 60 1 98.3042 98.7062 100.736
121 61 1 100.936 100.699 102.023
122 61 1 100.576 101.273 101.012
123 62 1 101.339 101.692 100.374
124 62 1 101.256 100.549 100.073
125 63 1 100.804 97.542 102.778
126 63 1 100.007 97.1449 97.5846
127 64 1 102.219 99.9881 97.9739
128 64 1 101.499 99.0255 97.913
129 65 1 98.2401 99.3156 98.2305
130 65 1 97.7205 100.104 98.9653
131 66 1 101.059 99.6169 102.007
132 66 1 100.954 98.69 102.801
133 67 1 99.6644 99.8661 101.496
134 67 1 99.481 99.3347 100.473
135 68 1 97.4893 97.2784 100.616
136 68 1 96.9976 102.118 100.802
137 69 1 99.3003 100.147 99.7877
138 69 1 98.6898 99.3742 99.175
139 70 1 102.017 100.772 101.998
140 70 1 97.026 100.229 101.934
141 71 1 102.074 101.025 98.1811
142 71 1 100.997 101.046 98.7488
143 72 1 101.201 101.563 97.6864
144 72 1 102.184 102.283 97.6147
145 73 1 97.8726 98.4637 98.7816
146 73 1 98.5814 97.7066 99.3999
147 74 1 97.7253 99.1894 99.5533
148 74 1 97.3004 100.11 100.2
149 75 1 101.249 101.904 101.438
150 75 1 101.684 100.878 101.011
151 76 1 98.8399 100.331 98.8166
152 76 1 99.8498 99.5916 99.0889
153 77 1 101.597 99.5961 99.7725
154 77 1 102.743 99.5579 99.5481
155 78 1 102.567 102.578 98.7384
156 78 1 101.355 102.933 98.9735
157 79 1 100.974 101.92 99.3342
158 79 1 100.121 102.687 99.2652
159 80 1 102.301 101.73 101.473
160 80 1 102.964 101.2 102.249
161 81 2 99.027 99.3864 102.228
162 82 2 97.6136 97.2744 99.3613
163 83 2 100.928 102.765 100.096
164 84 2 98.7414 100.751 100.893
165 85 2 100.787 97.8229 99.6286
166 86 2 98.9296 97.4863 97.3401
167 87 2 102.599 98.7286 101.496
168 88 2 99.5141 102.336 101.867
169 89 2 98.4621 97.0765 100.171
170 90 2 99.3289 102.284 99.8732
171 91 2 102.305 100.369 100.165
172 92 2 97.3704 101.18 100.104
173 93 2 98.5427 102.726 101.947
174 94 2 99.7478 100.517 100.64
175 95 2 99.2839 99.4527 98.2186
176 96 2 102.803 97.9388 100.261
177 97 2 102.601 99.1654 97.5299
178 98 2 100.335 101.712 102.105
179 99 2 102.933 101.647 98.1133
180 100 2 101.459 98.0604 98.6145
181 101 2 101.882 97.2083 102.875
182 102 2 97.0592 99.3345 98.5187
183 103 2 101.905 101.243 99.3634
184 104 2 102.792 100.815 101.123
185 105 2 97.2677 102.71 97.791
186 106 2 99.713 97.8179 99.3954
187 107 2 98.2515 100.723 99.7925
188 108 2 97.574 97.273 101.865
189 109 2 98.4255 99.794 100.262
190 110 2 101.526 100.619 97.1655
191 111 2 99.201 100.463 97.823
192 112 2 101.671 102.688 101.921
193 113 2 103.047 99.3193 102.483
194 114 2 100.923 98.9894 99.016
195 115 2 100.124 101.296 98.052
196 116 2 101.955 100.285 99.0018
197 117 2 100.125 102.032 97.3025
198 118 2 97.9027 100.902 102.012
199 119 2 100.09 99.1899 102.228
200 120 2 100.663 100.245 101.091
ITEM: TIMESTEP
3000
ITEM: NUMBER OF ATOMS
200
ITEM: BOX BOUNDS pp pp pp
9.6940906709620151e+01 1.0305909329037985e+02
9.7031316579642663e+01 1.0296868342035734e+02
9.7031316579642663e+01 1.0296868342035734e+02
ITEM: ATOMS id mol type x y z
1 1 1 102.14 99.6865 101.974
2 1 1 101.643 99.7394 100.937
3 2 1 101.67 102.025 98.5196
4 2 1 100.595 102.338 98.216
5 3 1 101.207 100.138 98.0924
6 3 1 100.446 99.2512 98.1267
7 4 1 98.8316 100.51 101.908
8 4 1 98.6805 101.672 101.59
9 5 1 100.63 99.9835 96.9097
10 5 1 99.7744 99.2305 97.2467
11 6 1 99.9383 97.1068 102.535
12 6 1 99.8968 97.3278 101.332
13 7 1 98.0072 102.684 102.952
14 7 1 98.2627 97.8125 102.531
15 8 1 102.935 100.685 99.2583
16 8 1 102.988 101.852 99.3494
17 9 1 101.441 101.515 102.501
18 9 1 102.45 102.109 102.479
19 10 1 102.357 101.599 100.375
20 10 1 101.9 102.403 99.6409
21 11 1 97.1301 97.7778 98.5627
22 11 1 97.6743 97.7106 97.4866
23 12 1 97.1373 98.9729 100.454
24 12 1 97.4238 98.1505 101.258
25 13 1 98.6492 99.5999 101.247
26 13 1 97.5181 99.2115 101.407
27 14 1 99.5755 101.626 100.863
28 14 1 98.4774 101.732 100.459
29 15 1 97.6776 102.211 98.6918
30 15 1 98.0365 101.443 97.7769
31 16 1 101.15 102.437 102.96
32 16 1 100.718 102.809 101.932
33 17 1 102.192 97.6413 101.027
34 17 1 102.564 97.7302 102.108
35 18 1 101.833 98.5692 99.5257
36 18 1 101.734 97.5387 100.079
37 19 1 96.944 102.935 102.769
38 19 1 102.776 102.777 101.561
39 20 1 102.298 97.6924 99.1818
40 20 1 102.515 98.4531 98.2552
41 21 1 98.9246 98.4586 98.7928
42 21 1 99.3365 97.4042 98.4886
43 22 1 99.573 98.2969 97.8447
44 22 1 98.9653 98.526 102.794
45 23 1 98.1996 97.4965 98.3953
46 23 1 98.4855 102.379 97.9228
47 24 1 101.414 98.6546 101.27
48 24 1 100.524 98.071 101.808
49 25 1 99.8265 101.69 99.0181
50 25 1 100.332 100.914 99.744
51 26 1 102.758 102.857 99.9894
52 26 1 101.905 102.574 100.749
53 27 1 100.642 98.2392 97.8323
54 27 1 101.28 97.2075 97.862
55 28 1 98.0404 102.412 101.102
56 28 1 98.4221 97.6124 101.285
57 29 1 102.353 101.264 97.1926
58 29 1 97.2682 101.904 97.1251
59 30 1 99.079 101.502 97.5162
60 30 1 98.3048 101.728 102.585
61 31 1 102.749 99.734 101.059
62 31 1 102.147 98.8543 100.482
63 32 1 99.8063 100.899 101.64
64 32 1 99.6215 100.358 102.736
65 33 1 99.1905 97.6613 102.064
66 33 1 99.9509 98.1547 102.826
67 34 1 99.9802 98.5662 98.7706
68 34 1 100.438 97.5039 98.5835
69 35 1 97.9469 98.8818 102.875
70 35 1 98.4949 98.3994 97.8498
71 36 1 97.7359 101.355 101.115
72 36 1 97.4225 102.097 102.018
73 37 1 99.1268 102.459 102.954
74 37 1 99.3501 101.371 102.446
75 38 1 98.3299 98.6339 101.82
76 38 1 97.3198 98.2259 102.328
77 39 1 99.5284 102.313 98.1238
78 39 1 98.6779 102.595 98.9398
79 40 1 100.322 98.0543 100.668
80 40 1 99.4431 98.5249 101.378
81 41 1 100.422 102.355 101.031
82 41 1 101.122 97.3865 101.064
83 42 1 98.3923 101.642 99.41
84 42 1 97.6359 102.295 100.032
85 43 1 101.065 98.7667 100.249
86 43 1 100.37 99.0773 101.137
87 44 1 100.493 99.7685 100.092
88 44 1 100.051 98.7231 99.8644
89 45 1 100.112 100.18 97.8046
90 45 1 100.478 101.029 97.0173
91 46 1 102.089 99.2614 98.798
92 46 1 102.981 98.5899 99.2759
93 47 1 99.0653 102.595 100.967
94 47 1 99.9714 97.0713 100.317
95 48 1 97.0159 100.5 98.2197
96 48 1 97.4725 99.7722 97.4165
97 49 1 98.0388 99.7734 102.203
98 49 1 97.7825 100.245 101.112
99 50 1 99.8728 100.651 98.7819
100 50 1 100.835 100.057 99.1397
101 51 1 98.4464 100.722 102.916
102 51 1 97.2817 100.834 97.2579
103 52 1 97.7517 101.12 98.7749
104 52 1 98.9056 101.416 98.538
105 53 1 98.8961 98.6354 99.8463
106 53 1 97.7727 98.1687 100.017
107 54 1 100.196 101.916 100.088
108 54 1 99.2901 101.206 99.853
109 55 1 101.502 97.841 102.055
110 55 1 102.18 98.6963 102.413
111 56 1 98.6635 99.6465 97.2411
112 56 1 98.1134 100.42 98.0107
113 57 1 102.571 100.179 102.844
114 57 1 101.61 99.5306 102.894
115 58 1 102.74 98.0365 97.2246
116 58 1 97.434 98.6769 97.8357
117 59 1 101.715 98.1731 97.3586
118 59 1 102.326 97.4486 98.0923
119 60 1 99.2353 97.8783 100.548
120 60 1 98.3299 98.6703 100.763
121 61 1 100.837 100.711 101.952
122 61 1 100.584 101.234 100.896
123 62 1 101.313 101.714 100.266
124 62 1 101.273 100.565 100.008
125 63 1 100.872 97.5563 102.889
126 63 1 99.9826 97.2216 97.6297
127 64 1 102.253 100.016 97.9223
128 64 1 101.489 99.0589 97.9309
129 65 1 98.1634 99.3746 98.1883
130 65 1 97.7469 100.074 99.002
131 66 1 101.044 99.532 101.897
132 66 1 100.988 98.6283 102.685
133 67 1 99.7168 99.879 101.552
134 67 1 99.3925 99.3153 100.549
135 68 1 97.4651 97.2533 100.643
136 68 1 96.9949 102.139 100.844
137 69 1 99.2683 100.116 99.8024
138 69 1 98.6157 99.3699 99.1279
139 70 1 102.008 100.756 101.999
140 70 1 96.9954 100.228 101.902
141 71 1 102.036 101.026 98.2254
142 71 1 100.998 101.03 98.7627
143 72 1 101.242 101.544 97.6578
144 72 1 102.166 102.342 97.6173
145 73 1 97.8637 98.514 98.8172
146 73 1 98.5625 97.706 99.3611
147 74 1 97.6777 99.197 99.5717
148 74 1 97.2557 100.122 100.226
149 75 1 101.277 101.848 101.417
150 75 1 101.716 100.896 100.953
151 76 1 98.8274 100.388 98.89
152 76 1 99.8417 99.6389 99.0644
153 77 1 101.576 99.5612 99.853
154 77 1 102.738 99.5677 99.6124
155 78 1 102.556 102.635 98.8297
156 78 1 101.379 102.984 98.9453
157 79 1 100.919 101.977 99.3175
158 79 1 100.009 102.694 99.2006
159 80 1 102.29 101.72 101.446
160 80 1 102.96 101.195 102.259
161 81 2 99.0852 99.4366 102.222
162 82 2 97.6054 97.2544 99.4096
163 83 2 100.953 102.792 100.054
164 84 2 98.7657 100.772 100.871
165 85 2 100.8 97.8667 99.5366
166 86 2 98.8589 97.4466 97.4425
167 87 2 102.624 98.65 101.448
168 88 2 99.5382 102.368 101.84
169 89 2 98.3942 97.1505 100.198
170 90 2 99.2803 102.342 99.8745
171 91 2 102.304 100.396 100.158
172 92 2 97.2997 101.189 100.128
173 93 2 98.5226 102.716 101.977
174 94 2 99.7411 100.458 100.651
175 95 2 99.282 99.3877 98.1861
176 96 2 102.866 97.9374 100.222
177 97 2 102.569 99.1397 97.4635
178 98 2 100.34 101.755 102.062
179 99 2 103.031 101.626 98.1135
180 100 2 101.464 98.1232 98.5916
181 101 2 101.941 97.1993 102.841
182 102 2 97.0227 99.3134 98.5238
183 103 2 101.928 101.295 99.2995
184 104 2 102.821 100.864 101.087
185 105 2 97.1453 102.774 97.8833
186 106 2 99.688 97.8337 99.4583
187 107 2 98.2183 100.713 99.9051
188 108 2 97.5617 97.2321 101.908
189 109 2 98.3857 99.6919 100.247
190 110 2 101.507 100.631 97.1887
191 111 2 99.1342 100.458 97.8889
192 112 2 101.745 102.689 101.908
193 113 2 103.081 99.3285 102.424
194 114 2 100.94 98.9851 99.0373
195 115 2 100.132 101.321 97.9927
196 116 2 101.908 100.279 99.0487
197 117 2 100.159 102.042 97.1791
198 118 2 97.8448 100.864 102.044
199 119 2 100.113 99.1089 102.164
200 120 2 100.715 100.234 100.999
ITEM: TIMESTEP
4000
ITEM: NUMBER OF ATOMS
200
ITEM: BOX BOUNDS pp pp pp
9.6910162310925770e+01 1.0308983768907423e+02
9.7031316579642663e+01 1.0296868342035734e+02
9.7031316579642663e+01 1.0296868342035734e+02
ITEM: ATOMS id mol type x y z
1 1 1 102.171 99.6369 101.97
2 1 1 101.649 99.7196 100.856
3 2 1 101.751 102.014 98.5157
4 2 1 100.581 102.32 98.381
5 3 1 101.229 100.153 98.0825
6 3 1 100.458 99.2072 98.0642
7 4 1 98.7838 100.473 101.941
8 4 1 98.6472 101.651 101.633
9 5 1 100.67 99.8614 97.1003
10 5 1 99.7052 99.1782 97.2778
11 6 1 99.8179 97.148 102.562
12 6 1 99.9239 97.3581 101.312
13 7 1 97.9382 102.695 102.947
14 7 1 98.2102 97.8092 102.495
15 8 1 102.976 100.727 99.2082
16 8 1 102.983 101.866 99.3968
17 9 1 101.467 101.507 102.508
18 9 1 102.463 102.16 102.429
19 10 1 102.457 101.574 100.334
20 10 1 101.856 102.394 99.6636
21 11 1 97.1204 97.7195 98.5284
22 11 1 97.6203 97.6892 97.4539
23 12 1 97.091 99.0113 100.388
24 12 1 97.425 98.1766 101.118
25 13 1 98.6768 99.5555 101.289
26 13 1 97.5477 99.2249 101.44
27 14 1 99.4936 101.698 100.86
28 14 1 98.3765 101.602 100.433
29 15 1 97.6413 102.255 98.6822
30 15 1 97.9394 101.473 97.7756
31 16 1 101.138 102.393 102.947
32 16 1 100.631 102.811 101.969
33 17 1 102.182 97.7122 101.041
34 17 1 102.578 97.7001 102.115
35 18 1 101.79 98.5127 99.475
36 18 1 101.787 97.5006 100.063
37 19 1 96.9406 102.963 102.716
38 19 1 102.732 102.803 101.547
39 20 1 102.442 97.6527 99.1334
40 20 1 102.569 98.4345 98.2188
41 21 1 98.9574 98.4003 98.7767
42 21 1 99.3381 97.4064 98.5045
43 22 1 99.5667 98.2574 97.8541
44 22 1 98.9863 98.4959 102.807
45 23 1 98.1362 97.5019 98.4317
46 23 1 98.4036 102.404 97.9065
47 24 1 101.487 98.6722 101.289
48 24 1 100.5 98.1823 101.792
49 25 1 99.8169 101.739 99.0666
50 25 1 100.395 100.917 99.7211
51 26 1 102.72 102.826 100
52 26 1 101.872 102.588 100.799
53 27 1 100.602 98.2335 97.6886
54 27 1 101.189 97.1512 97.9032
55 28 1 97.9921 102.417 101.07
56 28 1 98.3829 97.6012 101.254
57 29 1 102.395 101.247 97.1188
58 29 1 97.212 101.898 97.0596
59 30 1 99.0257 101.489 97.5445
60 30 1 98.2338 101.739 102.611
61 31 1 102.762 99.7223 101.072
62 31 1 102.167 98.8695 100.459
63 32 1 99.7 100.955 101.619
64 32 1 99.6774 100.293 102.613
65 33 1 99.1562 97.7773 101.965
66 33 1 99.9682 98.1647 102.725
67 34 1 100.007 98.6077 98.751
68 34 1 100.448 97.5324 98.5677
69 35 1 97.9605 98.8603 102.844
70 35 1 98.4951 98.3442 97.8392
71 36 1 97.6793 101.301 101.176
72 36 1 97.424 102.096 101.985
73 37 1 99.0688 102.38 102.939
74 37 1 99.3171 101.305 102.501
75 38 1 98.3853 98.5651 101.776
76 38 1 97.297 98.2475 102.211
77 39 1 99.5014 102.344 98.1737
78 39 1 98.6239 102.626 98.9633
79 40 1 100.269 98.1322 100.637
80 40 1 99.4458 98.6134 101.372
81 41 1 100.391 102.337 101.034
82 41 1 101.058 97.3751 101.073
83 42 1 98.3292 101.669 99.415
84 42 1 97.5325 102.341 99.9764
85 43 1 101.016 98.8493 100.211
86 43 1 100.433 99.1201 101.165
87 44 1 100.45 99.8426 100.002
88 44 1 100.035 98.7897 99.8088
89 45 1 100.211 100.21 98.0739
90 45 1 100.468 100.912 97.1254
91 46 1 102.112 99.2811 98.7984
92 46 1 102.981 98.5625 99.2129
93 47 1 99.0562 102.707 101.007
94 47 1 99.9462 97.1119 100.321
95 48 1 97.0114 100.533 98.1886
96 48 1 97.5052 99.7462 97.3761
97 49 1 98.0245 99.8148 102.319
98 49 1 97.8342 100.265 101.182