ITEM: TIMESTEP
0
ITEM: NUMBER OF ATOMS
200
ITEM: BOX BOUNDS pp pp pp
9.7026349262300357e+01 1.0297365073769964e+02
9.7026349262300357e+01 1.0297365073769964e+02
9.7026349262300357e+01 1.0297365073769964e+02
ITEM: ATOMS id mol type x y z
1 1 1 102.675 99.7014 101.397
2 1 1 97.5712 100.366 100.917
3 2 1 98.0461 97.127 98.7639
4 2 1 98.1619 97.8439 99.69
5 3 1 99.0221 100.185 98.6497
6 3 1 98.796 99.4416 97.7061
7 4 1 97.7195 99.9603 101.905
8 4 1 97.1541 98.9299 101.984
9 5 1 100.05 98.8984 102.075
10 5 1 98.9844 98.5292 101.613
11 6 1 100.595 99.3735 99.5768
12 6 1 101.631 99.1212 99.1168
13 7 1 98.2315 101.857 102.102
14 7 1 98.675 102.188 97.201
15 8 1 102.633 100.961 99.4751
16 8 1 101.507 101.145 99.1708
17 9 1 101.492 101.735 102.38
18 9 1 101.012 102.75 102.039
19 10 1 101.623 100.912 100.187
20 10 1 102.714 101.097 100.635
21 11 1 97.0417 102.919 97.3409
22 11 1 102.952 102.811 98.5186
23 12 1 97.4754 97.8746 101.724
24 12 1 98.5575 97.5691 101.492
25 13 1 102.87 100.673 101.669
26 13 1 97.6316 101.022 102.484
27 14 1 99.9261 102.053 101.07
28 14 1 99.6478 101.219 100.314
29 15 1 97.1995 102.398 99.4318
30 15 1 97.2534 101.451 98.7387
31 16 1 99.8745 98.5376 101.07
32 16 1 100.564 97.6312 101.44
33 17 1 97.7803 98.0663 100.666
34 17 1 98.6484 97.2441 100.494
35 18 1 101.809 98.0269 101.166
36 18 1 102.636 97.8147 100.339
37 19 1 102.946 97.0448 102.243
38 19 1 97.9867 102.961 102.804
39 20 1 101.425 98.2249 98.434
40 20 1 100.359 98.0042 97.9618
41 21 1 99.5412 97.9196 97.2313
42 21 1 98.46 98.4169 97.5378
43 22 1 97.6924 98.4854 98.8064
44 22 1 98.68 97.9858 98.4895
45 23 1 97.1308 97.5466 99.3649
46 23 1 102.468 97.8844 98.4476
47 24 1 102.425 98.0879 102.108
48 24 1 101.24 97.7992 102.176
49 25 1 101.37 102.51 100.143
50 25 1 100.758 101.538 100.495
51 26 1 97.7483 102.796 101.54
52 26 1 102.631 97.3036 101.25
53 27 1 101.318 102.449 97.1748
54 27 1 102.407 102.171 102.798
55 28 1 99.5824 97.4913 101.097
56 28 1 100.476 102.809 100.648
57 29 1 97.9073 102.534 97.8823
58 29 1 102.817 101.952 97.8361
59 30 1 99.572 101.387 97.2462
60 30 1 99.508 100.853 102.119
61 31 1 97.3766 99.3505 100.482
62 31 1 97.286 98.4684 99.7462
63 32 1 102.695 98.8612 102.901
64 32 1 97.5292 98.0077 102.86
65 33 1 102.404 99.0944 99.8767
66 33 1 101.855 99.2919 100.89
67 34 1 100.092 99.3524 97.1588
68 34 1 101.04 98.8187 97.5982
69 35 1 98.327 100.872 100.453
70 35 1 99.0722 101.42 101.262
71 36 1 97.7204 99.3321 97.2289
72 36 1 98.5434 99.9259 102.608
73 37 1 99.3235 101.881 102.258
74 37 1 100.315 102.178 102.908
75 38 1 98.8616 99.6108 101.617
76 38 1 98.4986 100.734 101.836
77 39 1 99.8154 102 98.0729
78 39 1 100.55 101.447 98.8239
79 40 1 100.867 98.3521 99.3103
80 40 1 100.609 98.0316 100.43
81 41 1 99.5218 102.792 97.2253
82 41 1 100.469 97.3068 102.765
83 42 1 99.2539 102.162 99.0958
84 42 1 98.2697 102.596 99.7145
85 43 1 100.562 99.2017 100.601
86 43 1 101.104 99.7407 101.458
87 44 1 101.89 100.337 101.043
88 44 1 101.475 99.8227 100.057
89 45 1 99.6281 99.8636 102.32
90 45 1 100.156 100.488 97.1757
91 46 1 102.307 99.962 99.1868
92 46 1 102.665 98.9461 98.716
93 47 1 100.752 97.2531 99.6031
94 47 1 100.238 102.548 98.8146
95 48 1 97.8667 99.483 98.2987
96 48 1 97.2666 98.603 97.8396
97 49 1 97.5157 100.469 99.8897
98 49 1 97.3141 99.4747 99.3404
99 50 1 97.0992 100.841 97.6611
100 50 1 98.0446 101.477 97.9243
101 51 1 99.0097 101.272 98.2533
102 51 1 98.9147 102.47 98.1632
103 52 1 97.6764 101.563 99.9008
104 52 1 98.2402 100.936 99.0033
105 53 1 99.0477 97.2174 99.2734
106 53 1 99.2744 102.355 100.22
107 54 1 100.973 101.918 101.434
108 54 1 100.151 101.03 101.293
109 55 1 100.488 98.3232 102.834
110 55 1 101.692 98.5076 102.772
111 56 1 97.3507 100.362 98.7153
112 56 1 102.265 100.878 98.4604
113 57 1 102.043 100.425 97.5127
114 57 1 102.876 99.7311 97.8773
115 58 1 101.94 97.1492 102.593
116 58 1 102.51 97.9005 97.3523
117 59 1 99.479 97.4031 98.2094
118 59 1 100.459 102.84 97.794
119 60 1 99.921 98.672 99.9302
120 60 1 98.9346 98.2582 100.504
121 61 1 100.418 101.348 102.325
122 61 1 101.194 100.904 101.594
123 62 1 102.389 102.735 100.312
124 62 1 101.795 101.82 100.776
125 63 1 97.5933 101.976 97.0551
126 63 1 97.0457 101.788 101.992
127 64 1 100.769 99.2603 98.5234
128 64 1 101.793 99.7565 98.2561
129 65 1 99.0911 100.501 99.7784
130 65 1 98.3426 99.793 100.402
131 66 1 101.946 99.0492 101.913
132 66 1 101.895 99.5467 97.0422
133 67 1 100.627 100.247 102.208
134 67 1 99.9491 99.7975 101.322
135 68 1 97.0455 102.137 100.931
136 68 1 98.2297 102.11 100.658
137 69 1 99.2283 99.2699 100.665
138 69 1 98.1436 98.9599 101.066
139 70 1 99.8946 99.7452 98.1257
140 70 1 99.4629 98.6209 98.0016
141 71 1 101.182 100.798 98.1995
142 71 1 101.873 101.563 97.652
143 72 1 101.133 102.138 98.1728
144 72 1 102.19 101.94 98.703
145 73 1 98.6714 99.0016 98.7681
146 73 1 99.8649 98.9653 98.9006
147 74 1 99.1966 99.4212 99.6222
148 74 1 99.1339 98.2878 99.4004
149 75 1 102.432 101.073 102.728
150 75 1 102.121 101.322 101.609
151 76 1 99.9256 99.9702 100.204
152 76 1 100.515 100.889 99.7134
153 77 1 99.9788 100.116 99.1547
154 77 1 100.031 100.801 98.1788
155 78 1 102.062 97.029 99.1646
156 78 1 101.632 97.5877 100.134
157 79 1 101.236 102.193 99.1664
158 79 1 101.066 97.2519 98.5667
159 80 1 98.9159 102.847 102.327
160 80 1 98.5585 97.9844 102.497
161 81 2 98.1164 98.9445 102.275
162 82 2 97.5291 97.0849 100.387
163 83 2 101.476 102.963 101.121
164 84 2 102.879 99.9809 102.625
165 85 2 101.537 98.6396 100.176
166 86 2 97.599 97.6547 97.945
167 87 2 102.707 98.5753 101.048
168 88 2 99.9044 102.738 101.99
169 89 2 99.6577 97.521 100.058
170 90 2 100.267 102.115 99.7849
171 91 2 102.51 100.093 100.265
172 92 2 98.7537 101.501 99.7598
173 93 2 98.6024 101.099 102.87
174 94 2 100.782 100.35 100.635
175 95 2 99.0931 98.884 102.662
176 96 2 102.107 98.1692 99.3898
177 97 2 102.079 98.8448 97.8605
178 98 2 101.301 100.712 102.871
179 99 2 98.2104 101.996 98.878
180 100 2 101.317 97.6562 97.458
181 101 2 102.123 102.37 101.669
182 102 2 98.2132 99.9544 99.3293
183 103 2 102.243 101.87 99.7643
184 104 2 98.6491 97.378 97.5826
185 105 2 102.007 102.852 97.9727
186 106 2 100.041 97.7794 98.9893
187 107 2 99.1721 100.454 100.993
188 108 2 98.9366 102.423 101.357
189 109 2 98.227 98.9197 99.8273
190 110 2 100.942 99.858 97.5274
191 111 2 98.2163 100.421 97.886
192 112 2 99.6279 97.8486 102.096
193 113 2 97.71 101.373 101.287
194 114 2 101.143 100.166 99.0856
195 115 2 100.676 101.386 97.4927
196 116 2 99.1744 100.382 97.4439
197 117 2 99.5722 101.161 99.1159
198 118 2 100.997 99.2926 102.476
199 119 2 100.974 98.6708 101.406
200 120 2 101.879 100.268 102.133
ITEM: TIMESTEP
1000
ITEM: NUMBER OF ATOMS
200
ITEM: BOX BOUNDS pp pp pp
9.6996463575536524e+01 1.0300353642446348e+02
9.7026349262300357e+01 1.0297365073769964e+02
9.7026349262300357e+01 1.0297365073769964e+02
ITEM: ATOMS id mol type x y z
1 1 1 102.63 99.6877 101.378
2 1 1 97.527 100.324 100.889
3 2 1 97.9882 97.1127 98.7959
4 2 1 98.1727 97.8918 99.629
5 3 1 98.9857 100.198 98.6557
6 3 1 98.7206 99.4701 97.7377
7 4 1 97.6948 99.9661 101.943
8 4 1 97.0644 98.9475 101.971
9 5 1 100.035 98.9755 102.072
10 5 1 99.028 98.5618 101.632
11 6 1 100.596 99.4001 99.5741
12 6 1 101.644 99.0944 99.1383
13 7 1 98.253 101.848 102.061
14 7 1 98.602 102.156 97.1962
15 8 1 102.704 100.984 99.4569
16 8 1 101.515 101.169 99.1417
17 9 1 101.456 101.789 102.399
18 9 1 101.06 102.797 102.036
19 10 1 101.644 100.924 100.144
20 10 1 102.724 101.143 100.556
21 11 1 97.047 102.897 97.3264
22 11 1 102.975 102.736 98.4959
23 12 1 97.4878 97.9479 101.754
24 12 1 98.5406 97.6109 101.402
25 13 1 102.892 100.674 101.614
26 13 1 97.6131 100.944 102.458
27 14 1 99.912 101.922 101.182
28 14 1 99.6587 101.225 100.314
29 15 1 97.1091 102.332 99.4401
30 15 1 97.2263 101.394 98.6134
31 16 1 99.9449 98.5292 101.079
32 16 1 100.58 97.607 101.356
33 17 1 97.8173 98.0555 100.634
34 17 1 98.6561 97.2432 100.413
35 18 1 101.759 98.0481 101.113
36 18 1 102.712 97.8246 100.353
37 19 1 102.957 97.0237 102.233
38 19 1 97.9725 102.975 102.723
39 20 1 101.469 98.3147 98.4566
40 20 1 100.357 98.0923 98.0723
41 21 1 99.4691 97.9089 97.1937
42 21 1 98.3984 98.4555 97.5806
43 22 1 97.7038 98.5322 98.8037
44 22 1 98.6667 97.9561 98.5195
45 23 1 97.0436 97.4532 99.3498
46 23 1 102.55 97.8939 98.3598
47 24 1 102.436 97.9994 102.111
48 24 1 101.238 97.8421 102.152
49 25 1 101.328 102.469 100.188
50 25 1 100.724 101.509 100.511
51 26 1 97.7267 102.746 101.484
52 26 1 102.658 97.2917 101.263
53 27 1 101.309 102.517 97.1799
54 27 1 102.394 102.18 102.827
55 28 1 99.5306 97.5047 101.066
56 28 1 100.378 102.711 100.616
57 29 1 97.869 102.528 97.9131
58 29 1 102.822 101.909 97.8352
59 30 1 99.569 101.386 97.165
60 30 1 99.4463 100.896 102.027
61 31 1 97.3312 99.2957 100.552
62 31 1 97.2727 98.4378 99.7483
63 32 1 102.721 98.8328 102.938
64 32 1 97.5756 98.0591 102.922
65 33 1 102.42 99.0858 99.8648
66 33 1 101.856 99.2571 100.864
67 34 1 100.147 99.3913 97.1251
68 34 1 101.105 98.8717 97.5816
69 35 1 98.3199 100.884 100.453
70 35 1 98.9793 101.416 101.231
71 36 1 97.7012 99.3519 97.2672
72 36 1 98.5592 99.9293 102.682
73 37 1 99.3094 101.94 102.269
74 37 1 100.31 102.211 102.906
75 38 1 98.8228 99.6226 101.664
76 38 1 98.4588 100.722 101.803
77 39 1 99.8081 102.067 97.9704
78 39 1 100.583 101.487 98.7204
79 40 1 100.784 98.3627 99.2636
80 40 1 100.681 98.0118 100.414
81 41 1 99.484 102.814 97.2057
82 41 1 100.471 97.3229 102.741
83 42 1 99.2351 102.157 99.1307
84 42 1 98.2052 102.564 99.7085
85 43 1 100.582 99.2626 100.595
86 43 1 101.125 99.7212 101.48
87 44 1 101.899 100.418 101.034
88 44 1 101.526 99.8382 100.034
89 45 1 99.581 99.9426 102.355
90 45 1 100.196 100.493 97.2156
91 46 1 102.326 99.9892 99.2005
92 46 1 102.694 99.0089 98.6916
93 47 1 100.751 97.2142 99.6497
94 47 1 100.186 102.586 98.7684
95 48 1 97.8314 99.4536 98.341
96 48 1 97.2383 98.6048 97.8623
97 49 1 97.4998 100.484 99.885
98 49 1 97.299 99.4373 99.4289
99 50 1 97.1096 100.894 97.5674
100 50 1 98.0558 101.485 97.8986
101 51 1 98.9949 101.255 98.2335
102 51 1 98.8889 102.529 98.1944
103 52 1 97.6393 101.578 99.9167
104 52 1 98.2118 100.918 99.0303
105 53 1 98.9768 97.1875 99.2981
106 53 1 99.3103 102.363 100.215
107 54 1 100.943 101.907 101.48
108 54 1 100.217 100.949 101.31
109 55 1 100.478 98.3621 102.873
110 55 1 101.703 98.4706 102.772
111 56 1 97.2883 100.27 98.7489
112 56 1 102.306 100.852 98.4659
113 57 1 102.124 100.438 97.5336
114 57 1 102.917 99.6976 97.866
115 58 1 101.961 97.1632 102.534
116 58 1 102.491 97.8442 97.3031
117 59 1 99.4841 97.4144 98.2078
118 59 1 100.459 102.947 97.8068
119 60 1 99.8989 98.6995 100.008
120 60 1 98.9324 98.2657 100.557
121 61 1 100.371 101.306 102.396
122 61 1 101.152 100.87 101.684
123 62 1 102.427 102.735 100.336
124 62 1 101.803 101.809 100.843
125 63 1 97.5656 101.918 97.0598
126 63 1 97.0339 101.828 101.993
127 64 1 100.793 99.2552 98.5027
128 64 1 101.824 99.7134 98.2447
129 65 1 99.0783 100.479 99.7614
130 65 1 98.3616 99.7958 100.46
131 66 1 101.951 99.025 101.89
132 66 1 101.931 99.5013 97.0494
133 67 1 100.696 100.18 102.29
134 67 1 99.9946 99.8167 101.341
135 68 1 97.032 102.108 100.921
136 68 1 98.2138 102.103 100.687
137 69 1 99.2514 99.2806 100.712
138 69 1 98.1546 98.9121 101.11
139 70 1 99.937 99.7847 98.123
140 70 1 99.487 98.7136 97.8717
141 71 1 101.262 100.764 98.2095
142 71 1 101.823 101.604 97.6176
143 72 1 101.123 102.241 98.187
144 72 1 102.171 101.935 98.6965
145 73 1 98.7169 98.9924 98.7409
146 73 1 99.8723 98.9364 98.9006
147 74 1 99.2298 99.44 99.6057
148 74 1 99.124 98.2722 99.4524
149 75 1 102.473 101.071 102.69
150 75 1 102.079 101.299 101.672
151 76 1 99.9304 100.002 100.172
152 76 1 100.528 100.935 99.6799
153 77 1 99.9662 100.148 99.1183
154 77 1 99.9831 100.848 98.1991
155 78 1 102.052 97.0036 99.1418
156 78 1 101.68 97.5796 100.126
157 79 1 101.178 102.234 99.2128
158 79 1 101.035 97.3322 98.6419
159 80 1 98.8795 102.921 102.263
160 80 1 98.5674 98.0249 102.504
161 81 2 98.104 98.9366 102.292
162 82 2 97.502 97.0638 100.364
163 83 2 101.493 102.934 101.097
164 84 2 102.91 99.9841 102.621
165 85 2 101.49 98.6414 100.143
166 86 2 97.6462 97.6369 97.9526
167 87 2 102.767 98.5524 101.06
168 88 2 99.8759 102.774 101.969
169 89 2 99.6598 97.5452 100.043
170 90 2 100.26 102.082 99.7111
171 91 2 102.556 100.15 100.255
172 92 2 98.7339 101.521 99.7797
173 93 2 98.6304 101.082 102.813
174 94 2 100.783 100.355 100.66
175 95 2 99.1326 98.9087 102.706
176 96 2 102.203 98.1338 99.3383
177 97 2 102.135 98.783 97.858
178 98 2 101.32 100.727 102.877
179 99 2 98.1805 101.923 98.8902
180 100 2 101.362 97.6993 97.5242
181 101 2 102.143 102.334 101.704
182 102 2 98.1983 99.8898 99.3819
183 103 2 102.205 101.873 99.7603
184 104 2 98.5791 97.3732 97.5628
185 105 2 102.041 102.885 97.9722
186 106 2 99.98 97.7461 99.067
187 107 2 99.1867 100.443 100.977
188 108 2 98.9608 102.473 101.349
189 109 2 98.2509 98.9142 99.8982
190 110 2 101.016 99.8929 97.5063
191 111 2 98.1811 100.42 97.9598
192 112 2 99.6839 97.9055 102.08
193 113 2 97.6643 101.339 101.272
194 114 2 101.15 100.157 99.0601
195 115 2 100.677 101.367 97.5309
196 116 2 99.2007 100.343 97.4973
197 117 2 99.6059 101.18 99.1684
198 118 2 101.042 99.1491 102.4
199 119 2 100.967 98.6717 101.4
200 120 2 101.914 100.207 102.163
ITEM: TIMESTEP
2000
ITEM: NUMBER OF ATOMS
200
ITEM: BOX BOUNDS pp pp pp
9.6966277532627274e+01 1.0303372246737273e+02
9.7026349262300357e+01 1.0297365073769964e+02
9.7026349262300357e+01 1.0297365073769964e+02
ITEM: ATOMS id mol type x y z
1 1 1 102.725 99.7038 101.41
2 1 1 97.451 100.367 100.886
3 2 1 97.9928 97.0446 98.789
4 2 1 98.1252 97.8147 99.6875
5 3 1 99.0108 100.182 98.6375
6 3 1 98.687 99.4648 97.7364
7 4 1 97.6345 99.9564 101.844
8 4 1 97.0979 98.9136 101.987
9 5 1 100.047 99.0328 102.086
10 5 1 98.9951 98.5766 101.622
11 6 1 100.616 99.4015 99.5841
12 6 1 101.67 99.1199 99.1345
13 7 1 98.2111 101.878 102.04
14 7 1 98.5721 102.227 97.1006
15 8 1 102.666 101.005 99.4768
16 8 1 101.538 101.21 99.144
17 9 1 101.528 101.729 102.385
18 9 1 101.007 102.712 102.125
19 10 1 101.638 100.869 100.146
20 10 1 102.67 101.116 100.651
21 11 1 97.0679 102.944 97.2993
22 11 1 103.016 102.75 98.4695
23 12 1 97.3852 97.8631 101.841
24 12 1 98.4572 97.6116 101.43
25 13 1 102.916 100.671 101.674
26 13 1 97.5713 101.025 102.482
27 14 1 99.9008 101.929 101.368
28 14 1 99.6067 101.309 100.415
29 15 1 97.0532 102.318 99.4012
30 15 1 97.1746 101.333 98.6367
31 16 1 99.9643 98.5684 101.083
32 16 1 100.598 97.614 101.394
33 17 1 97.78 98.066 100.69
34 17 1 98.6562 97.2064 100.445
35 18 1 101.861 98.0739 101.119
36 18 1 102.738 97.7615 100.333
37 19 1 102.923 96.9889 102.23
38 19 1 97.9645 102.982 102.6
39 20 1 101.467 98.2637 98.4817
40 20 1 100.373 98.0145 97.9832
41 21 1 99.456 97.9104 97.1607
42 21 1 98.4175 98.4562 97.537
43 22 1 97.6817 98.4499 98.8371
44 22 1 98.6661 97.8981 98.5111
45 23 1 97.1319 97.488 99.292
46 23 1 102.608 97.8572 98.3885
47 24 1 102.456 98.0193 102.092
48 24 1 101.254 97.8194 102.198
49 25 1 101.244 102.491 100.213
50 25 1 100.687 101.532 100.549
51 26 1 97.6318 102.679 101.478
52 26 1 102.653 97.2618 101.262
53 27 1 101.355 102.462 97.194
54 27 1 102.466 102.166 102.809
55 28 1 99.5491 97.5761 101.15
56 28 1 100.263 102.683 100.687
57 29 1 97.8473 102.507 97.8865
58 29 1 102.867 101.875 97.8111
59 30 1 99.5851 101.379 97.2138
60 30 1 99.4127 100.895 102.012
61 31 1 97.3101 99.3541 100.586
62 31 1 97.2479 98.431 99.8377
63 32 1 102.749 98.8167 102.937
64 32 1 97.5383 98.0221 102.877
65 33 1 102.494 99.0913 99.8852
66 33 1 101.922 99.256 100.887
67 34 1 100.154 99.349 97.1593
68 34 1 101.131 98.8245 97.6141
69 35 1 98.2648 100.929 100.461
70 35 1 98.8961 101.492 101.274
71 36 1 97.6667 99.3355 97.2464
72 36 1 98.4769 99.9307 102.628
73 37 1 99.2984 101.958 102.297
74 37 1 100.334 102.192 102.891
75 38 1 98.8608 99.6741 101.669
76 38 1 98.3702 100.732 101.815
77 39 1 99.7728 102 98.0567
78 39 1 100.588 101.503 98.7551
79 40 1 100.792 98.3197 99.304
80 40 1 100.689 98.061 100.457
81 41 1 99.544 102.766 97.2409
82 41 1 100.477 97.3702 102.822
83 42 1 99.1946 102.129 99.0822
84 42 1 98.1988 102.553 99.7137
85 43 1 100.646 99.2071 100.595
86 43 1 101.169 99.7205 101.483
87 44 1 101.928 100.333 101.074
88 44 1 101.559 99.7862 100.009
89 45 1 99.5562 99.9469 102.41
90 45 1 100.237 100.526 97.2558
91 46 1 102.379 99.9856 99.1824
92 46 1 102.773 98.9682 98.7094
93 47 1 100.708 97.2648 99.6626
94 47 1 100.204 102.598 98.8068
95 48 1 97.7992 99.4598 98.353
96 48 1 97.2249 98.572 97.8441
97 49 1 97.5171 100.535 99.817
98 49 1 97.2708 99.4482 99.4367
99 50 1 97.0593 100.767 97.5384
100 50 1 97.9827 101.486 97.7588
101 51 1 98.9053 101.32 98.241
102 51 1 98.8527 102.519 98.1365
103 52 1 97.6415 101.597 99.8887
104 52 1 98.1914 100.908 99.0217
105 53 1 98.9836 97.2037 99.2697
106 53 1 99.2679 102.322 100.154
107 54 1 100.947 101.888 101.498
108 54 1 100.187 100.925 101.273
109 55 1 100.553 98.3964 102.834
110 55 1 101.777 98.4354 102.782
111 56 1 97.2969 100.307 98.7711
112 56 1 102.302 100.822 98.4681
113 57 1 102.096 100.453 97.4655
114 57 1 102.919 99.7235 97.853
115 58 1 101.969 97.1355 102.575
116 58 1 102.572 97.8702 97.3006
117 59 1 99.5155 97.4202 98.1115
118 59 1 100.502 102.842 97.7948
119 60 1 99.9115 98.6704 99.9882
120 60 1 98.9513 98.2671 100.538
121 61 1 100.358 101.32 102.347
122 61 1 101.163 100.864 101.69
123 62 1 102.325 102.712 100.377
124 62 1 101.719 101.781 100.805
125 63 1 97.5076 101.995 96.9653
126 63 1 96.9052 101.845 101.892
127 64 1 100.795 99.2588 98.5184
128 64 1 101.883 99.7618 98.2592
129 65 1 99.1149 100.519 99.8846
130 65 1 98.28 99.8574 100.473
131 66 1 102.058 99.0383 101.936
132 66 1 101.965 99.4959 97.0789
133 67 1 100.652 100.138 102.249
134 67 1 100.027 99.8202 101.309
135 68 1 96.9886 102.099 100.815
136 68 1 98.23 102.085 100.679
137 69 1 99.1939 99.3009 100.634
138 69 1 98.1501 99.0048 101.158
139 70 1 99.9302 99.8093 98.0949
140 70 1 99.5064 98.7208 97.8883
141 71 1 101.273 100.801 98.1949
142 71 1 101.883 101.531 97.5144
143 72 1 101.258 102.192 98.2066
144 72 1 102.304 101.91 98.7094
145 73 1 98.7028 98.9889 98.7737
146 73 1 99.8696 98.9398 98.9472
147 74 1 99.2209 99.4141 99.594
148 74 1 99.1163 98.263 99.4637
149 75 1 102.478 101.108 102.663
150 75 1 102.119 101.306 101.6
151 76 1 99.9745 100.019 100.246
152 76 1 100.516 100.961 99.7152
153 77 1 99.9708 100.135 99.1368
154 77 1 100.004 100.869 98.1881
155 78 1 102.126 97.0218 99.0762
156 78 1 101.706 97.5231 100.098
157 79 1 101.203 102.269 99.2276
158 79 1 101.063 97.3136 98.629
159 80 1 98.9416 102.981 102.249
160 80 1 98.5408 98.0309 102.473
161 81 2 98.0715 98.9541 102.305
162 82 2 97.4632 97.0961 100.315
163 83 2 101.417 102.961 101.148
164 84 2 102.922 99.9482 102.591
165 85 2 101.578 98.613 100.114
166 86 2 97.6526 97.6381 97.9833
167 87 2 102.804 98.5635 101.053
168 88 2 99.9213 102.88 102.019
169 89 2 99.634 97.5106 100.05
170 90 2 100.207 102.054 99.7422
171 91 2 102.565 100.116 100.272
172 92 2 98.7414 101.487 99.7437
173 93 2 98.5992 101.112 102.835
174 94 2 100.852 100.349 100.624
175 95 2 99.0937 98.9349 102.721
176 96 2 102.241 98.1666 99.3598
177 97 2 102.158 98.7865 97.882
178 98 2 101.306 100.762 102.849
179 99 2 98.1484 101.933 98.8626
180 100 2 101.425 97.6596 97.5003
181 101 2 102.07 102.33 101.692
182 102 2 98.2377 99.901 99.3466
183 103 2 102.221 101.896 99.7723
184 104 2 98.5823 97.3617 97.4974
185 105 2 102.115 102.801 97.8981
186 106 2 99.9801 97.7751 98.9777
187 107 2 99.1325 100.461 101
188 108 2 98.9779 102.484 101.335
189 109 2 98.2457 98.9571 99.9112
190 110 2 101.04 99.8646 97.5198
191 111 2 98.1194 100.418 97.9316
192 112 2 99.7407 97.9469 102.101
193 113 2 97.5731 101.348 101.302
194 114 2 101.194 100.195 99.0779
195 115 2 100.693 101.438 97.5561
196 116 2 99.1416 100.411 97.4645
197 117 2 99.5894 101.14 99.1394
198 118 2 101.067 99.2067 102.447
199 119 2 101.027 98.6621 101.41
200 120 2 101.918 100.226 102.173
ITEM: TIMESTEP
3000
ITEM: NUMBER OF ATOMS
200
ITEM: BOX BOUNDS pp pp pp
9.6935788114943179e+01 1.0306421188505682e+02
9.7026349262300357e+01 1.0297365073769964e+02
9.7026349262300357e+01 1.0297365073769964e+02
ITEM: ATOMS id mol type x y z
1 1 1 102.751 99.6821 101.344
2 1 1 97.472 100.339 100.906
3 2 1 97.9799 97.0422 98.7957
4 2 1 98.0978 97.812 99.6648
5 3 1 99.0776 100.169 98.6384
6 3 1 98.709 99.4872 97.7528
7 4 1 97.6413 99.9682 101.959
8 4 1 97.0659 98.9784 101.97
9 5 1 100.059 98.9885 101.992
10 5 1 98.9881 98.6162 101.649
11 6 1 100.688 99.3599 99.5642
12 6 1 101.762 99.0728 99.0798
13 7 1 98.144 101.982 102.062
14 7 1 98.6175 102.193 97.1945
15 8 1 102.684 101.009 99.4604
16 8 1 101.535 101.196 99.0889
17 9 1 101.552 101.727 102.389
18 9 1 101.049 102.755 102.125
19 10 1 101.711 100.929 100.152
20 10 1 102.747 101.154 100.658
21 11 1 97.0765 102.866 97.303
22 11 1 103.045 102.746 98.4695
23 12 1 97.3833 97.936 101.72
24 12 1 98.5129 97.6448 101.456
25 13 1 102.946 100.629 101.689
26 13 1 97.5446 100.995 102.479
27 14 1 99.8761 101.989 101.101
28 14 1 99.7441 101.139 100.331
29 15 1 96.9236 102.34 99.478
30 15 1 97.2029 101.434 98.7522
31 16 1 99.9372 98.5771 101.094
32 16 1 100.581 97.632 101.458
33 17 1 97.7045 98.046 100.673
34 17 1 98.5824 97.2893 100.456
35 18 1 101.844 98.0325 101.094
36 18 1 102.755 97.7392 100.314
37 19 1 102.926 97.127 102.267
38 19 1 97.9098 102.937 102.571
39 20 1 101.497 98.256 98.4615
40 20 1 100.371 98.1556 97.9878
41 21 1 99.487 97.9419 97.1774
42 21 1 98.413 98.4445 97.5709
43 22 1 97.6777 98.4614 98.8122
44 22 1 98.6443 97.9194 98.4949
45 23 1 97.0571 97.4577 99.3481
46 23 1 102.66 97.8051 98.3679
47 24 1 102.517 98.0974 102.072
48 24 1 101.357 97.8308 102.086
49 25 1 101.273 102.49 100.195
50 25 1 100.773 101.489 100.578
51 26 1 97.6156 102.818 101.526
52 26 1 102.63 97.3041 101.253
53 27 1 101.3 102.436 97.1665
54 27 1 102.458 102.205 102.839
55 28 1 99.5198 97.5672 101.1
56 28 1 100.379 102.864 100.672
57 29 1 97.8628 102.506 97.9196
58 29 1 102.938 101.863 97.8136
59 30 1 99.5672 101.344 97.1478
60 30 1 99.42 100.89 102.041
61 31 1 97.329 99.3137 100.487
62 31 1 97.232 98.4238 99.7306
63 32 1 102.77 98.8501 102.907
64 32 1 97.5683 98.0543 102.877
65 33 1 102.515 99.0817 99.8892
66 33 1 101.906 99.1992 100.897
67 34 1 100.127 99.3115 97.1249
68 34 1 101.15 98.8201 97.5861
69 35 1 98.2177 100.89 100.485
70 35 1 98.8868 101.45 101.254
71 36 1 97.6675 99.3731 97.231
72 36 1 98.5658 99.9258 102.642
73 37 1 99.2488 101.927 102.248
74 37 1 100.353 102.166 102.796
75 38 1 98.7177 99.6806 101.561
76 38 1 98.3557 100.74 101.804
77 39 1 99.7724 101.962 97.9931
78 39 1 100.595 101.551 98.7566
79 40 1 100.832 98.3126 99.2445
80 40 1 100.616 98.0356 100.417
81 41 1 99.5123 102.738 97.1845
82 41 1 100.476 97.3744 102.799
83 42 1 99.2266 102.177 99.1426
84 42 1 98.2221 102.551 99.7411
85 43 1 100.633 99.2168 100.555
86 43 1 101.174 99.7107 101.484
87 44 1 101.997 100.342 101.063
88 44 1 101.592 99.8022 100.036
89 45 1 99.57 99.9135 102.316
90 45 1 100.184 100.488 97.2077
91 46 1 102.412 99.9541 99.1722
92 46 1 102.818 98.9211 98.7241
93 47 1 100.697 97.2411 99.6474
94 47 1 100.158 102.568 98.8026
95 48 1 97.7693 99.4607 98.3478
96 48 1 97.2226 98.5792 97.8142
97 49 1 97.4108 100.54 99.849
98 49 1 97.2406 99.4268 99.3893
99 50 1 97.0878 100.705 97.6396
100 50 1 97.9764 101.44 97.8252
101 51 1 98.9605 101.296 98.3017
102 51 1 98.8642 102.537 98.209
103 52 1 97.601 101.582 99.8887
104 52 1 98.2356 100.909 99.0871
105 53 1 98.9492 97.1907 99.247
106 53 1 99.1957 102.409 100.246
107 54 1 100.835 101.921 101.55
108 54 1 100.189 100.951 101.302
109 55 1 100.552 98.373 102.776
110 55 1 101.79 98.3911 102.825
111 56 1 97.2335 100.347 98.7489
112 56 1 102.353 100.864 98.4249
113 57 1 102.118 100.394 97.5094
114 57 1 102.937 99.6545 97.8699
115 58 1 101.981 97.1535 102.663
116 58 1 102.657 97.8271 97.3104
117 59 1 99.5229 97.4325 98.1319
118 59 1 100.446 102.768 97.7578
119 60 1 99.8665 98.6901 99.9887
120 60 1 98.9208 98.2934 100.611
121 61 1 100.379 101.248 102.345
122 61 1 101.228 100.903 101.635
123 62 1 102.311 102.739 100.33
124 62 1 101.736 101.861 100.909
125 63 1 97.5539 101.985 96.9998
126 63 1 96.9016 101.838 102.025
127 64 1 100.812 99.2565 98.4718
128 64 1 101.889 99.6988 98.2142
129 65 1 99.0742 100.51 99.8098
130 65 1 98.3311 99.7995 100.439
131 66 1 102.085 99.1173 101.95
132 66 1 101.919 99.4597 97.1219
133 67 1 100.666 100.211 102.273
134 67 1 100.02 99.809 101.279
135 68 1 96.8569 102.158 100.959
136 68 1 98.0944 102.113 100.713
137 69 1 99.2514 99.3225 100.704
138 69 1 98.166 98.9407 101.058
139 70 1 99.9308 99.8127 98.0323
140 70 1 99.4671 98.7078 97.9411
141 71 1 101.238 100.71 98.1367
142 71 1 101.915 101.525 97.5821
143 72 1 101.288 102.231 98.1791
144 72 1 102.297 101.949 98.7449
145 73 1 98.6937 99.0176 98.7275
146 73 1 99.854 98.9615 98.8783
147 74 1 99.2125 99.4507 99.6074
148 74 1 99.0468 98.2578 99.4429
149 75 1 102.466 101.111 102.728
150 75 1 102.188 101.302 101.594
151 76 1 99.9361 99.9889 100.184
152 76 1 100.616 100.885 99.7255
153 77 1 100.063 100.059 99.0771
154 77 1 99.959 100.872 98.1957
155 78 1 102.108 97.0258 99.0955
156 78 1 101.637 97.5784 100.086
157 79 1 101.274 102.307 99.1897
158 79 1 100.935 97.3339 98.6121
159 80 1 98.8892 102.934 102.272
160 80 1 98.5758 98.0519 102.476
161 81 2 98.0922 98.9653 102.335
162 82 2 97.459 97.0471 100.352
163 83 2 101.441 102.941 101.152
164 84 2 102.93 99.9776 102.653
165 85 2 101.568 98.6358 100.093
166 86 2 97.6282 97.6285 97.9455
167 87 2 102.808 98.5639 100.988
168 88 2 99.867 102.793 101.948
169 89 2 99.6156 97.5782 100.038
170 90 2 100.217 102.108 99.8124
171 91 2 102.581 100.099 100.228
172 92 2 98.7593 101.543 99.8624
173 93 2 98.5158 101.1 102.851
174 94 2 100.884 100.324 100.636
175 95 2 99.0547 98.9568 102.749
176 96 2 102.271 98.0843 99.3362
177 97 2 102.176 98.75 97.8994
178 98 2 101.316 100.778 102.956
179 99 2 98.2094 101.914 98.9113
180 100 2 101.317 97.6238 97.5527
181 101 2 102.14 102.388 101.727
182 102 2 98.1954 99.9192 99.3275
183 103 2 102.17 101.847 99.8324
184 104 2 98.5885 97.3491 97.488
185 105 2 102.13 102.8 97.8929
186 106 2 99.9396 97.766 99.0469
187 107 2 99.1637 100.442 100.976
188 108 2 98.918 102.495 101.318
189 109 2 98.1831 98.9284 99.8828
190 110 2 101.012 99.878 97.4532
191 111 2 98.196 100.42 98.0558
192 112 2 99.6949 97.9087 102.091
193 113 2 97.5375 101.392 101.304
194 114 2 101.24 100.17 99.073
195 115 2 100.709 101.432 97.5476
196 116 2 99.1572 100.406 97.4703
197 117 2 99.6655 101.158 99.1831
198 118 2 101.094 99.1925 102.448
199 119 2 101.006 98.6431 101.373
200 120 2 101.927 100.269 102.167
ITEM: TIMESTEP
4000
ITEM: NUMBER OF ATOMS
200
ITEM: BOX BOUNDS pp pp pp
9.6904992273517067e+01 1.0309500772648293e+02
9.7026349262300357e+01 1.0297365073769964e+02
9.7026349262300357e+01 1.0297365073769964e+02
ITEM: ATOMS id mol type x y z
1 1 1 102.79 99.6545 101.362
2 1 1 97.5658 100.253 100.952
3 2 1 98.0374 97.0055 98.8056
4 2 1 98.1409 97.7849 99.6659
5 3 1 98.978 100.234 98.6746
6 3 1 98.7817 99.504 97.7258
7 4 1 97.5966 99.9879 101.989
8 4 1 96.9776 98.9653 102.062
9 5 1 99.9647 99.0723 102.048
10 5 1 98.9697 98.5446 101.596
11 6 1 100.683 99.4421 99.6161
12 6 1 101.733 99.0936 99.1313
13 7 1 98.1272 101.878 101.955
14 7 1 98.5308 102.259 97.0949
15 8 1 102.749 100.942 99.524
16 8 1 101.611 101.23 99.1077
17 9 1 101.465 101.746 102.242
18 9 1 100.969 102.795 102.092
19 10 1 101.784 100.752 100.014
20 10 1 102.806 101.103 100.621
21 11 1 97.0476 102.964 97.3515
22 11 1 103.061 102.7 98.4502
23 12 1 97.3576 97.8786 101.785
24 12 1 98.4356 97.6482 101.478
25 13 1 102.941 100.649 101.686
26 13 1 97.5104 101.072 102.437
27 14 1 99.8529 102.019 101.109
28 14 1 99.6559 101.151 100.335
29 15 1 97.095 102.302 99.401
30 15 1 97.149 101.378 98.6661
31 16 1 99.918 98.5855 101.108
32 16 1 100.521 97.6738 101.549
33 17 1 97.7842 98.0649 100.696
34 17 1 98.583 97.2322 100.516
35 18 1 101.894 98.1921 101.28
36 18 1 102.636 97.7457 100.365
37 19 1 102.953 96.9978 102.272
38 19 1 97.8738 103.013 102.533
39 20 1 101.441 98.2859 98.4463
40 20 1 100.431 98.067 97.8978
41 21 1 99.318 97.8963 97.2381
42 21 1 98.3214 98.464 97.5993
43 22 1 97.7102 98.5579 98.9038
44 22 1 98.6361 97.9168 98.5127
45 23 1 97.1393 97.5538 99.1106
46 23 1 102.562 97.7534 98.2493
47 24 1 102.525 98.0757 102.121
48 24 1 101.37 97.802 102.086
49 25 1 101.257 102.465 100.355
50 25 1 100.731 101.397 100.519
51 26 1 97.5859 102.787 101.422
52 26 1 102.65 97.3253 101.327
53 27 1 101.323 102.415 97.1673
54 27 1 102.432 102.099 102.709
55 28 1 99.4736 97.5732 101.205
56 28 1 100.388 102.9 100.799
57 29 1 97.7878 102.477 97.9038
58 29 1 103.002 101.826 97.6966
59 30 1 99.6041 101.458 97.1781
60 30 1 99.4317 100.928 102.034
61 31 1 97.3235 99.2372 100.537
62 31 1 97.1584 98.3421 99.8075
63 32 1 102.754 98.8657 102.969
64 32 1 97.4111 98.0707 102.877
65 33 1 102.523 99.0137 99.9201
66 33 1 101.928 99.1948 100.918
67 34 1 100.076 99.212 97.1794
68 34 1 101.144 98.8204 97.5524
69 35 1 98.2902 100.838 100.471
70 35 1 98.9769 101.419 101.217
71 36 1 97.5799 99.3638 97.1917
72 36 1 98.5256 99.9559 102.654
73 37 1 99.2573 101.958 102.26
74 37 1 100.302 102.198 102.895
75 38 1 98.8365 99.5952 101.654
76 38 1 98.3763 100.692 101.751
77 39 1 99.8373 102.086 97.975
78 39 1 100.631 101.635 98.774
79 40 1 100.783 98.3944 99.3126
80 40 1 100.67 98.0208 100.469
81 41 1 99.5002 102.773 97.2571
82 41 1 100.476 97.4048 102.887
83 42 1 99.2211 102.177 99.1352
84 42 1 98.2287 102.535 99.7359
85 43 1 100.673 99.1905 100.6
86 43 1 101.2 99.7785 101.479
87 44 1 102.016 100.395 101.024
88 44 1 101.722 99.7244 100.026
89 45 1 99.5915 99.9763 102.374
90 45 1 100.198 100.59 97.2025
91 46 1 102.434 99.9033 99.1867
92 46 1 102.846 98.8914 98.6806
93 47 1 100.693 97.2139 99.7555
94 47 1 100.198 102.596 98.871
95 48 1 97.7117 99.4757 98.2484
96 48 1 97.1796 98.5283 97.8351
97 49 1 97.4793 100.488 99.9037
98 49 1 97.1754 99.4125 99.4816
99 50 1 96.9889 100.755 97.7616