ITEM: TIMESTEP
0
ITEM: NUMBER OF ATOMS
200
ITEM: BOX BOUNDS pp pp pp
9.7032927782732060e+01 1.0296707221726794e+02
9.7032927782732060e+01 1.0296707221726794e+02
9.7032927782732060e+01 1.0296707221726794e+02
ITEM: ATOMS id mol type x y z
1 1 1 97.1738 99.2412 100.046
2 1 1 102.565 99.5382 99.1363
3 2 1 100.134 97.3144 101.292
4 2 1 101.225 97.2817 100.745
5 3 1 100.292 98.8038 100.046
6 3 1 99.5185 98.9865 99.146
7 4 1 98.2373 99.2867 102.909
8 4 1 99.0082 99.9248 102.29
9 5 1 99.6474 98.4585 102.824
10 5 1 99.9943 99.3842 102.136
11 6 1 102.39 102.125 102.41
12 6 1 97.4191 102.055 101.71
13 7 1 98.6213 97.3287 102.418
14 7 1 97.8644 97.0384 101.537
15 8 1 102.233 101.079 98.2925
16 8 1 102.483 102.18 97.9088
17 9 1 101.191 102.108 102.228
18 9 1 100.055 101.632 102.518
19 10 1 97.0864 100.321 98.4292
20 10 1 97.1988 101.059 99.337
21 11 1 102.657 97.4078 99.4019
22 11 1 97.6923 97.9507 98.9247
23 12 1 97.6572 98.7147 100.868
24 12 1 102.746 98.6462 101.74
25 13 1 97.9191 101.35 102.273
26 13 1 97.2183 100.927 101.408
27 14 1 99.4535 101.746 101.489
28 14 1 100.096 101.639 100.477
29 15 1 97.0689 102.534 98.7786
30 15 1 97.2594 101.498 98.2326
31 16 1 101.415 98.0392 102.476
32 16 1 100.904 102.956 102.818
33 17 1 97.0495 99.7877 102.277
34 17 1 97.2953 98.769 102.845
35 18 1 102.129 97.8938 100.384
36 18 1 97.212 98.2199 99.9189
37 19 1 102.033 101.461 97.2184
38 19 1 97.2242 101.691 97.1113
39 20 1 101.08 98.0045 99.9606
40 20 1 100.784 97.2448 99.0833
41 21 1 99.0585 98.7879 97.7599
42 21 1 98.3953 98.2509 102.807
43 22 1 98.68 97.6409 99.2004
44 22 1 98.4975 98.6948 98.6804
45 23 1 98.0406 97.0372 98.4522
46 23 1 97.6176 97.6368 97.4263
47 24 1 102.48 98.8409 100.763
48 24 1 101.556 98.6721 101.501
49 25 1 101.43 101.149 99.0011
50 25 1 101.494 100.531 100.026
51 26 1 98.729 102.495 99.1095
52 26 1 97.7724 101.854 99.0783
53 27 1 100.184 102.404 98.6551
54 27 1 100.021 102.677 97.4985
55 28 1 97.1445 97.7853 101.126
56 28 1 98.2563 98.0618 101.626
57 29 1 97.501 102.507 97.6993
58 29 1 102.846 97.482 98.2305
59 30 1 98.5615 102.87 97.4567
60 30 1 97.7307 102.637 102.573
61 31 1 102.257 100.546 99.2267
62 31 1 102.125 99.7296 100.125
63 32 1 98.0014 100.269 102.378
64 32 1 97.7995 99.0849 101.955
65 33 1 100.622 99.1043 97.1414
66 33 1 100.647 97.9551 97.3085
67 34 1 100.044 98.8228 98.2119
68 34 1 101.142 98.2374 98.2646
69 35 1 97.5433 102.578 100.624
70 35 1 97.3847 101.414 100.345
71 36 1 99.723 100.751 102.078
72 36 1 98.6091 100.885 101.595
73 37 1 98.296 101.897 97.1544
74 37 1 99.2832 102.426 102.672
75 38 1 98.3694 99.8014 101.455
76 38 1 97.981 100.562 100.652
77 39 1 98.9354 100.887 98.0435
78 39 1 99.8755 100.66 98.681
79 40 1 100.623 98.1997 101.105
80 40 1 99.5083 98.0305 101.777
81 41 1 100.802 102.274 101.011
82 41 1 101.864 102.468 101.487
83 42 1 99.4323 102.098 99.7652
84 42 1 98.2061 102.067 99.9867
85 43 1 100.615 99.2218 101.269
86 43 1 99.9952 99.8663 100.474
87 44 1 102.236 99.619 101.548
88 44 1 101.346 99.948 100.878
89 45 1 99.5327 99.4937 97.1684
90 45 1 100.43 100.192 102.69
91 46 1 101.719 97.8704 99.036
92 46 1 101.949 98.9431 98.4712
93 47 1 99.2939 102.876 101.727
94 47 1 99.7101 102.644 100.578
95 48 1 97.5962 99.0363 99.1038
96 48 1 102.692 98.3302 98.8484
97 49 1 98.2506 101.033 99.7282
98 49 1 98.9552 101.527 100.525
99 50 1 97.0493 99.2885 98.1969
100 50 1 97.8982 98.6138 97.7802
101 51 1 98.7107 100.085 97.3806
102 51 1 97.912 100.949 97.5293
103 52 1 98.0044 100.831 98.576
104 52 1 97.6275 100.055 99.3844
105 53 1 100.253 98.1748 99.1728
106 53 1 100.152 97.6536 100.261
107 54 1 101.757 102.213 100.423
108 54 1 101.019 101.509 99.9997
109 55 1 101.859 97.0769 102.381
110 55 1 102.455 98.028 102.559
111 56 1 97.4689 99.9251 97.3456
112 56 1 97.0504 100.817 102.538
113 57 1 101.97 98.9972 102.386
114 57 1 102.453 99.449 97.3392
115 58 1 100.98 102.804 98.0746
116 58 1 101.756 97.5811 97.479
117 59 1 99.379 101.664 98.7009
118 59 1 99.2305 102.804 98.2449
119 60 1 99.7347 98.7061 101.005
120 60 1 99.1557 99.1817 100.14
121 61 1 102.178 101.213 101.902
122 61 1 101.434 101.424 101.016
123 62 1 102.614 101.852 100.997
124 62 1 102.251 101.227 100.05
125 63 1 102.79 97.0398 101.827
126 63 1 102.71 97.0664 97.102
127 64 1 101.652 98.6492 97.4278
128 64 1 101.036 99.29 98.1926
129 65 1 98.5349 99.5074 99.3554
130 65 1 99.6098 99.9602 99.5005
131 66 1 99.566 100.764 100.986
132 66 1 99.4178 99.6758 101.318
133 67 1 100.499 101.4 101.594
134 67 1 101.411 100.561 101.734
135 68 1 98.0604 97.6327 100.607
136 68 1 98.8667 97.0616 99.9981
137 69 1 99.605 101.032 99.783
138 69 1 98.8508 100.493 99.0591
139 70 1 102.447 100.494 97.4558
140 70 1 101.308 100.828 97.6149
141 71 1 100.299 99.897 97.8183
142 71 1 99.8691 100.91 97.3782
143 72 1 100.347 101.477 98.1245
144 72 1 101.497 101.849 98.1639
145 73 1 99.3312 98.1618 99.8059
146 73 1 99.3778 98.0402 98.6061
147 74 1 98.7072 98.7433 101.033
148 74 1 98.1297 99.4875 100.348
149 75 1 102.04 100.235 102.492
150 75 1 101.122 99.5159 102.171
151 76 1 100.61 100.736 100.633
152 76 1 100.865 99.6692 99.998
153 77 1 101.546 99.7764 99.2122
154 77 1 100.933 100.39 98.4726
155 78 1 101.656 97.0719 99.7887
156 78 1 102.484 102.924 100.723
157 79 1 101.182 102.174 99.1076
158 79 1 100.639 102.606 100.04
159 80 1 101.027 97.316 101.761
160 80 1 100.059 97.4821 102.433
161 81 2 98.9537 98.893 102.054
162 82 2 97.7488 97.0609 99.6344
163 83 2 102.853 102.198 99.854
164 84 2 98.8805 101.039 102.83
165 85 2 101.406 98.8467 100.446
166 86 2 98.5129 97.8516 98.021
167 87 2 97.2635 99.8013 101.064
168 88 2 100.24 102.467 101.968
169 89 2 99.0807 97.7196 100.847
170 90 2 100.343 101.555 99.2202
171 91 2 101.91 99.9693 98.2061
172 92 2 98.7015 102.491 101
173 93 2 98.5607 102.086 101.973
174 94 2 102.27 100.604 100.946
175 95 2 99.331 99.809 98.332
176 96 2 102.085 98.6405 99.6447
177 97 2 102.629 98.3413 97.7348
178 98 2 101.175 101.071 102.58
179 99 2 98.3867 101.88 98.2017
180 100 2 100.171 97.5863 98.1545
181 101 2 100.893 101.886 97.2933
182 102 2 98.2387 98.5042 99.9747
183 103 2 102.266 101.809 99.0461
184 104 2 99.3571 97.593 97.4477
185 105 2 101.906 102.818 98.6165
186 106 2 99.7202 97.1379 99.3638
187 107 2 100.605 100.539 99.4422
188 108 2 97.5041 97.7776 102.306
189 109 2 98.9343 100.345 100.244
190 110 2 101.42 99.8082 97.2716
191 111 2 98.1266 99.6994 98.3425
192 112 2 102.084 97.7357 101.466
193 113 2 98.1005 101.635 101.088
194 114 2 101.088 98.7941 99.247
195 115 2 99.2954 101.92 97.6299
196 116 2 100.402 99.5278 99.0058
197 117 2 101.716 102.472 97.2975
198 118 2 102.963 100.362 100.145
199 119 2 100.561 98.4772 102.142
200 120 2 100.404 100.175 101.517
ITEM: TIMESTEP
1000
ITEM: NUMBER OF ATOMS
200
ITEM: BOX BOUNDS pp pp pp
9.7003108211197727e+01 1.0299689178880227e+02
9.7032927782732060e+01 1.0296707221726794e+02
9.7032927782732060e+01 1.0296707221726794e+02
ITEM: ATOMS id mol type x y z
1 1 1 97.1575 99.2346 100.055
2 1 1 102.563 99.4884 99.1577
3 2 1 100.175 97.2954 101.221
4 2 1 101.278 97.268 100.759
5 3 1 100.252 98.7897 99.9223
6 3 1 99.4898 98.9314 99.0145
7 4 1 98.2034 99.2964 102.969
8 4 1 98.9995 99.9921 102.297
9 5 1 99.6803 98.468 102.861
10 5 1 100.015 99.3967 102.176
11 6 1 102.362 102.13 102.394
12 6 1 97.3781 102.087 101.735
13 7 1 98.5932 97.3213 102.441
14 7 1 97.9142 97.1104 101.521
15 8 1 102.272 101.093 98.3697
16 8 1 102.516 102.155 97.9597
17 9 1 101.18 102.189 102.17
18 9 1 100.059 101.641 102.496
19 10 1 97.0972 100.363 98.3696
20 10 1 97.1348 101.11 99.3281
21 11 1 102.698 97.3543 99.3821
22 11 1 97.7058 97.9584 98.9589
23 12 1 97.6584 98.7389 100.957
24 12 1 102.813 98.6229 101.833
25 13 1 97.8333 101.336 102.324
26 13 1 97.19 100.893 101.475
27 14 1 99.4629 101.794 101.519
28 14 1 100.119 101.705 100.481
29 15 1 97.1139 102.497 98.7484
30 15 1 97.264 101.481 98.2101
31 16 1 101.49 98.0532 102.45
32 16 1 100.959 102.992 102.891
33 17 1 96.9629 99.7414 102.272
34 17 1 97.2367 98.7846 102.896
35 18 1 102.078 97.871 100.387
36 18 1 97.1963 98.1166 99.991
37 19 1 102.013 101.443 97.1822
38 19 1 97.1435 101.764 97.1019
39 20 1 101.116 97.9361 99.9086
40 20 1 100.827 97.2044 99.0369
41 21 1 98.9925 98.8339 97.7426
42 21 1 98.3804 98.2545 102.851
43 22 1 98.6759 97.5758 99.1413
44 22 1 98.5138 98.6459 98.7681
45 23 1 98.0149 97.0864 98.4554
46 23 1 97.6365 97.5982 97.4184
47 24 1 102.543 98.7896 100.785
48 24 1 101.584 98.7414 101.442
49 25 1 101.457 101.174 99.062
50 25 1 101.497 100.567 100.116
51 26 1 98.7049 102.479 99.0801
52 26 1 97.7814 101.83 99.0822
53 27 1 100.159 102.404 98.5781
54 27 1 100.062 102.66 97.3894
55 28 1 97.1666 97.8006 101.143
56 28 1 98.2775 98.0986 101.655
57 29 1 97.5665 102.455 97.7296
58 29 1 102.853 97.4126 98.1243
59 30 1 98.5016 102.857 97.4765
60 30 1 97.6597 102.682 102.574
61 31 1 102.331 100.489 99.3245
62 31 1 102.159 99.7028 100.239
63 32 1 97.9636 100.238 102.365
64 32 1 97.7767 99.045 102.005
65 33 1 100.629 99.147 97.0903
66 33 1 100.73 98.0423 97.3103
67 34 1 100.052 98.8819 98.0716
68 34 1 101.077 98.2536 98.3099
69 35 1 97.5499 102.587 100.657
70 35 1 97.353 101.419 100.377
71 36 1 99.6873 100.787 102.048
72 36 1 98.6233 100.883 101.593
73 37 1 98.2507 101.886 97.1821
74 37 1 99.1945 102.416 102.695
75 38 1 98.3125 99.7575 101.468
76 38 1 97.9663 100.561 100.747
77 39 1 98.9197 100.873 98.0116
78 39 1 99.9129 100.614 98.6423
79 40 1 100.706 98.1564 101.101
80 40 1 99.6127 98.0593 101.706
81 41 1 100.796 102.3 101.064
82 41 1 101.884 102.516 101.434
83 42 1 99.4005 102.021 99.7429
84 42 1 98.2401 102.058 100.008
85 43 1 100.565 99.1985 101.214
86 43 1 99.8879 99.8485 100.47
87 44 1 102.219 99.5549 101.512
88 44 1 101.316 99.8876 100.903
89 45 1 99.6515 99.5396 97.2028
90 45 1 100.518 100.202 102.674
91 46 1 101.768 97.8145 99.0211
92 46 1 101.958 98.8938 98.5329
93 47 1 99.2823 102.935 101.737
94 47 1 99.6431 102.633 100.604
95 48 1 97.6002 99.0391 99.0532
96 48 1 102.731 98.3267 98.9618
97 49 1 98.17 101.02 99.753
98 49 1 98.9317 101.507 100.574
99 50 1 97.002 99.3195 98.214
100 50 1 97.8706 98.6884 97.8484
101 51 1 98.7709 100.091 97.405
102 51 1 97.9163 100.943 97.5074
103 52 1 97.9765 100.838 98.6446
104 52 1 97.5073 100.032 99.3568
105 53 1 100.271 98.1398 99.1001
106 53 1 100.146 97.6506 100.253
107 54 1 101.823 102.154 100.436
108 54 1 101.05 101.531 99.9855
109 55 1 101.887 97.1067 102.394
110 55 1 102.499 98.0494 102.671
111 56 1 97.4097 99.9889 97.3717
112 56 1 96.9324 100.829 102.565
113 57 1 102.011 99.0266 102.423
114 57 1 102.414 99.4905 97.4094
115 58 1 100.987 102.721 98.0361
116 58 1 101.829 97.5777 97.7163
117 59 1 99.3418 101.668 98.7321
118 59 1 99.2296 102.801 98.2552
119 60 1 99.7874 98.6487 100.845
120 60 1 99.1136 99.1619 100.078
121 61 1 102.19 101.211 101.871
122 61 1 101.437 101.309 100.943
123 62 1 102.629 101.86 101.002
124 62 1 102.237 101.275 100.06
125 63 1 102.85 97.0615 101.893
126 63 1 102.756 97.0253 97.1621
127 64 1 101.65 98.6334 97.4203
128 64 1 101.049 99.3434 98.1679
129 65 1 98.5089 99.5924 99.3267
130 65 1 99.6021 99.9341 99.4398
131 66 1 99.536 100.766 100.949
132 66 1 99.3762 99.5991 101.33
133 67 1 100.452 101.346 101.481
134 67 1 101.323 100.573 101.639
135 68 1 98.047 97.7225 100.579
136 68 1 98.8249 97.0669 100
137 69 1 99.652 100.97 99.853
138 69 1 98.8786 100.604 99.0407
139 70 1 102.381 100.502 97.4639
140 70 1 101.216 100.811 97.5226
141 71 1 100.383 100.014 97.7879
142 71 1 99.7801 100.841 97.324
143 72 1 100.353 101.449 98.1711
144 72 1 101.526 101.756 98.156
145 73 1 99.363 98.132 99.7334
146 73 1 99.4232 97.9694 98.5104
147 74 1 98.7198 98.7316 100.979
148 74 1 98.0826 99.5412 100.371
149 75 1 101.985 100.285 102.414
150 75 1 101.12 99.502 102.076
151 76 1 100.533 100.729 100.598
152 76 1 100.804 99.6717 100.037
153 77 1 101.548 99.7958 99.292
154 77 1 101.032 100.447 98.4685
155 78 1 101.737 97.0289 99.7727
156 78 1 102.54 102.923 100.685
157 79 1 101.169 102.164 99.0583
158 79 1 100.609 102.618 100.022
159 80 1 101.041 97.291 101.823
160 80 1 100.104 97.5684 102.489
161 81 2 98.9246 98.8989 102.066
162 82 2 97.7554 97.0655 99.6168
163 83 2 102.909 102.201 99.8322
164 84 2 98.835 101.054 102.788
165 85 2 101.361 98.8322 100.41
166 86 2 98.5304 97.8931 98.0269
167 87 2 97.191 99.8203 101.101
168 88 2 100.22 102.549 102.044
169 89 2 99.0775 97.7173 100.798
170 90 2 100.327 101.549 99.2581
171 91 2 101.98 99.9584 98.2919
172 92 2 98.6579 102.499 101.013
173 93 2 98.4982 102.06 101.963
174 94 2 102.316 100.588 100.989
175 95 2 99.2654 99.8434 98.3165
176 96 2 102.093 98.6745 99.6887
177 97 2 102.689 98.41 97.8141
178 98 2 101.167 101.128 102.468
179 99 2 98.3932 101.841 98.2373
180 100 2 100.202 97.5036 98.0952
181 101 2 100.934 101.846 97.2725
182 102 2 98.2124 98.526 99.8729
183 103 2 102.27 101.883 99.0697
184 104 2 99.3056 97.569 97.3615
185 105 2 101.925 102.788 98.6168
186 106 2 99.7319 97.1074 99.3854
187 107 2 100.664 100.51 99.4293
188 108 2 97.5049 97.7848 102.309
189 109 2 98.8886 100.339 100.217
190 110 2 101.421 99.8249 97.2468
191 111 2 98.1031 99.744 98.3317
192 112 2 102.091 97.7756 101.421
193 113 2 98.0604 101.632 101.116
194 114 2 101.119 98.7607 99.2641
195 115 2 99.3269 101.911 97.6495
196 116 2 100.429 99.5341 98.9649
197 117 2 101.774 102.448 97.3425
198 118 2 103.027 100.372 100.205
199 119 2 100.611 98.4784 102.154
200 120 2 100.385 100.155 101.506
ITEM: TIMESTEP
2000
ITEM: NUMBER OF ATOMS
200
ITEM: BOX BOUNDS pp pp pp
9.6972988947987091e+01 1.0302701105201291e+02
9.7032927782732060e+01 1.0296707221726794e+02
9.7032927782732060e+01 1.0296707221726794e+02
ITEM: ATOMS id mol type x y z
1 1 1 97.1265 99.3555 100.077
2 1 1 102.598 99.5093 99.1194
3 2 1 100.211 97.2393 101.231
4 2 1 101.348 97.2401 100.775
5 3 1 100.338 98.7928 100.013
6 3 1 99.5457 98.9322 99.11
7 4 1 98.2388 99.2252 102.955
8 4 1 98.9797 99.8792 102.273
9 5 1 99.5979 98.4275 102.801
10 5 1 99.9518 99.3208 102.061
11 6 1 102.466 102.118 102.474
12 6 1 97.3194 102.04 101.755
13 7 1 98.5733 97.2527 102.401
14 7 1 97.8419 97.0413 101.545
15 8 1 102.298 101.093 98.3377
16 8 1 102.589 102.174 97.882
17 9 1 101.204 102.106 102.2
18 9 1 100.169 101.514 102.501
19 10 1 97.0187 100.342 98.3955
20 10 1 97.0838 101.078 99.3308
21 11 1 102.755 97.4333 99.3209
22 11 1 97.6728 98.0423 98.8591
23 12 1 97.5894 98.7659 100.884
24 12 1 102.779 98.6345 101.76
25 13 1 97.8247 101.245 102.279
26 13 1 97.1463 100.95 101.37
27 14 1 99.4234 101.839 101.395
28 14 1 100.146 101.709 100.454
29 15 1 97.0694 102.548 98.7392
30 15 1 97.2419 101.502 98.2063
31 16 1 101.479 98.023 102.491
32 16 1 100.945 102.952 102.858
33 17 1 96.9178 99.6184 102.338
34 17 1 97.2521 98.7175 103.005
35 18 1 102.19 97.927 100.409
36 18 1 97.193 98.2569 99.976
37 19 1 102.085 101.436 97.2433
38 19 1 97.1765 101.675 97.1246
39 20 1 101.208 97.987 99.9616
40 20 1 100.892 97.2749 99.076
41 21 1 99.0187 98.7685 97.7169
42 21 1 98.3823 98.2024 102.816
43 22 1 98.6296 97.661 99.162
44 22 1 98.5807 98.7468 98.7308
45 23 1 97.9691 97.0782 98.416
46 23 1 97.535 97.6785 97.3952
47 24 1 102.508 98.8868 100.752
48 24 1 101.612 98.6657 101.517
49 25 1 101.49 101.165 99.0544
50 25 1 101.498 100.553 100.071
51 26 1 98.6555 102.501 99.0736
52 26 1 97.7074 101.846 99.1446
53 27 1 100.233 102.448 98.6773
54 27 1 100.063 102.669 97.4904
55 28 1 97.1488 97.8395 101.136
56 28 1 98.2983 98.0032 101.606
57 29 1 97.5046 102.502 97.6723
58 29 1 102.901 97.5162 98.1837
59 30 1 98.5397 102.783 97.4906
60 30 1 97.6554 102.63 102.583
61 31 1 102.305 100.514 99.2835
62 31 1 102.113 99.7237 100.209
63 32 1 97.9514 100.121 102.401
64 32 1 97.7232 98.9391 102.025
65 33 1 100.626 99.1715 97.0539
66 33 1 100.668 98.0564 97.29
67 34 1 100.117 98.8247 98.0779
68 34 1 101.133 98.2201 98.3345
69 35 1 97.477 102.629 100.636
70 35 1 97.3492 101.47 100.314
71 36 1 99.632 100.756 102.029
72 36 1 98.5585 100.84 101.604
73 37 1 98.293 101.844 97.1821
74 37 1 99.2321 102.439 102.686
75 38 1 98.2029 99.7139 101.464
76 38 1 97.8772 100.553 100.678
77 39 1 98.8915 100.867 98.004
78 39 1 99.8876 100.643 98.6602
79 40 1 100.689 98.1239 101.102
80 40 1 99.588 98.0395 101.675
81 41 1 100.826 102.281 101.065
82 41 1 101.922 102.467 101.478
83 42 1 99.3869 102.065 99.7022
84 42 1 98.2003 102.106 100.008
85 43 1 100.655 99.189 101.197
86 43 1 99.9006 99.7863 100.442
87 44 1 102.221 99.5383 101.557
88 44 1 101.319 99.9542 100.945
89 45 1 99.6025 99.4683 97.1417
90 45 1 100.453 100.147 102.621
91 46 1 101.841 97.8406 99.0096
92 46 1 101.92 98.9032 98.5418
93 47 1 99.2993 102.902 101.719
94 47 1 99.6375 102.651 100.551
95 48 1 97.589 99.1161 99.0496
96 48 1 102.771 98.3861 98.8947
97 49 1 98.1827 101.038 99.7231
98 49 1 98.9486 101.56 100.498
99 50 1 96.9446 99.2759 98.2093
100 50 1 97.8872 98.6968 97.9418
101 51 1 98.6378 100.039 97.4466
102 51 1 97.8715 100.947 97.557
103 52 1 97.9683 100.852 98.6161
104 52 1 97.5603 100.136 99.4485
105 53 1 100.306 98.161 99.1462
106 53 1 100.195 97.6785 100.243
107 54 1 101.83 102.262 100.437
108 54 1 101.07 101.516 100.004
109 55 1 101.874 97.0513 102.375
110 55 1 102.529 98.0261 102.613
111 56 1 97.4303 99.9724 97.369
112 56 1 96.9402 100.736 102.504
113 57 1 101.991 98.9819 102.438
114 57 1 102.469 99.5024 97.3682
115 58 1 101.017 102.804 98.039
116 58 1 101.791 97.5966 97.515
117 59 1 99.3823 101.629 98.7274
118 59 1 99.2591 102.807 98.2913
119 60 1 99.7691 98.7134 100.914
120 60 1 99.097 99.1741 100.074
121 61 1 102.186 101.23 101.913
122 61 1 101.45 101.402 101.009
123 62 1 102.662 101.877 101.004
124 62 1 102.236 101.332 100.044
125 63 1 102.842 97.0534 101.83
126 63 1 102.748 97.0778 97.1021
127 64 1 101.603 98.6605 97.4475
128 64 1 101.024 99.3376 98.2336
129 65 1 98.4909 99.6197 99.3653
130 65 1 99.5866 99.9735 99.4708
131 66 1 99.5376 100.809 100.954
132 66 1 99.2571 99.6916 101.282
133 67 1 100.414 101.349 101.463
134 67 1 101.263 100.567 101.743
135 68 1 98.0711 97.6998 100.584
136 68 1 98.8161 97.0706 99.9897
137 69 1 99.6047 101.026 99.7927
138 69 1 98.875 100.587 99.0092
139 70 1 102.492 100.504 97.4642
140 70 1 101.359 100.847 97.6827
141 71 1 100.314 99.9725 97.7768
142 71 1 99.7239 100.829 97.2881
143 72 1 100.37 101.445 98.0884
144 72 1 101.517 101.813 98.1695
145 73 1 99.3686 98.1243 99.7858
146 73 1 99.4041 98.0559 98.5566
147 74 1 98.7025 98.6814 100.915
148 74 1 98.103 99.5362 100.37
149 75 1 102.082 100.227 102.399
150 75 1 101.135 99.5207 102.069
151 76 1 100.597 100.72 100.606
152 76 1 100.854 99.6689 100.073
153 77 1 101.555 99.8029 99.2654
154 77 1 100.915 100.405 98.4877
155 78 1 101.871 97.0659 99.7599
156 78 1 102.555 102.949 100.816
157 79 1 101.242 102.233 99.1222
158 79 1 100.611 102.637 100.039
159 80 1 101.047 97.2351 101.795
160 80 1 100.101 97.5342 102.456
161 81 2 98.8643 98.8548 102.01
162 82 2 97.7195 97.0915 99.5972
163 83 2 102.873 102.285 99.8481
164 84 2 98.7979 100.939 102.796
165 85 2 101.455 98.8488 100.465
166 86 2 98.5086 97.8485 98.0043
167 87 2 97.1563 99.8089 101.176
168 88 2 100.228 102.443 102.051
169 89 2 99.1577 97.664 100.796
170 90 2 100.354 101.55 99.2276
171 91 2 101.94 99.9492 98.2355
172 92 2 98.6378 102.541 101.021
173 93 2 98.5005 102.017 101.964
174 94 2 102.255 100.582 101.038
175 95 2 99.3449 99.759 98.2692
176 96 2 102.184 98.717 99.7013
177 97 2 102.546 98.4085 97.7805
178 98 2 101.201 101.019 102.639
179 99 2 98.3611 101.861 98.2221
180 100 2 100.228 97.5675 98.1476
181 101 2 100.934 101.863 97.2921
182 102 2 98.2645 98.4926 99.8068
183 103 2 102.347 101.907 98.9967
184 104 2 99.3598 97.5602 97.4139
185 105 2 101.971 102.81 98.5741
186 106 2 99.7422 97.1665 99.3929
187 107 2 100.631 100.512 99.5036
188 108 2 97.4784 97.8092 102.261
189 109 2 98.9231 100.375 100.194
190 110 2 101.448 99.8522 97.2678
191 111 2 98.0239 99.7839 98.3931
192 112 2 102.102 97.7587 101.496
193 113 2 98.0673 101.654 101.094
194 114 2 101.154 98.7627 99.3151
195 115 2 99.3162 101.862 97.6507
196 116 2 100.416 99.5047 99.0526
197 117 2 101.773 102.46 97.3415
198 118 2 102.903 100.471 100.192
199 119 2 100.607 98.4594 102.113
200 120 2 100.348 100.144 101.461
ITEM: TIMESTEP
3000
ITEM: NUMBER OF ATOMS
200
ITEM: BOX BOUNDS pp pp pp
9.6942566981148730e+01 1.0305743301885127e+02
9.7032927782732060e+01 1.0296707221726794e+02
9.7032927782732060e+01 1.0296707221726794e+02
ITEM: ATOMS id mol type x y z
1 1 1 97.1031 99.2908 100.055
2 1 1 102.653 99.4917 99.1147
3 2 1 100.175 97.2761 101.199
4 2 1 101.303 97.2983 100.771
5 3 1 100.261 98.7826 100.005
6 3 1 99.4878 98.94 99.1082
7 4 1 98.253 99.2712 102.936
8 4 1 98.9994 99.9295 102.215
9 5 1 99.6946 98.4884 102.808
10 5 1 99.9901 99.3858 102.077
11 6 1 102.552 102.187 102.482
12 6 1 97.3244 102.081 101.736
13 7 1 98.5009 97.2626 102.423
14 7 1 97.7864 97.0868 101.52
15 8 1 102.291 101.066 98.3616
16 8 1 102.604 102.176 97.9544
17 9 1 101.162 102.084 102.13
18 9 1 100.061 101.633 102.509
19 10 1 96.9891 100.354 98.3939
20 10 1 97.056 101.113 99.331
21 11 1 102.773 97.3534 99.3549
22 11 1 97.6439 97.9745 98.9152
23 12 1 97.6289 98.6961 100.959
24 12 1 102.838 98.6527 101.78
25 13 1 97.7934 101.244 102.203
26 13 1 97.1315 100.865 101.332
27 14 1 99.4979 101.864 101.447
28 14 1 100.148 101.704 100.478
29 15 1 97.0576 102.496 98.748
30 15 1 97.2041 101.449 98.1961
31 16 1 101.491 98.0286 102.465
32 16 1 100.954 102.954 102.914
33 17 1 96.9037 99.6335 102.273
34 17 1 97.2588 98.7405 103.024
35 18 1 102.142 97.9112 100.398
36 18 1 97.0879 98.1854 99.9865
37 19 1 102.097 101.435 97.2267
38 19 1 97.1469 101.614 97.1512
39 20 1 101.182 97.9995 99.967
40 20 1 100.925 97.3121 99.0171
41 21 1 99.0096 98.7728 97.7396
42 21 1 98.3369 98.2373 102.83
43 22 1 98.5962 97.6309 99.1355
44 22 1 98.5329 98.7229 98.7296
45 23 1 97.9706 97.0415 98.4329
46 23 1 97.538 97.5987 97.4109
47 24 1 102.625 98.8194 100.755
48 24 1 101.614 98.6889 101.465
49 25 1 101.453 101.149 99.0628
50 25 1 101.549 100.531 100.062
51 26 1 98.7195 102.479 99.0177
52 26 1 97.7411 101.84 99.0911
53 27 1 100.151 102.407 98.6459
54 27 1 100.097 102.585 97.4646
55 28 1 97.1027 97.8248 101.132
56 28 1 98.2762 98.0256 101.611
57 29 1 97.4321 102.496 97.6973
58 29 1 102.946 97.4607 98.2222
59 30 1 98.4691 102.805 97.4778
60 30 1 97.5968 102.647 102.571
61 31 1 102.338 100.527 99.2777
62 31 1 102.266 99.7423 100.205
63 32 1 97.9367 100.098 102.358
64 32 1 97.7122 98.9177 102.08
65 33 1 100.592 99.148 97.133
66 33 1 100.704 97.9937 97.293
67 34 1 100.049 98.8612 98.1013
68 34 1 101.095 98.2379 98.3017
69 35 1 97.4904 102.598 100.604
70 35 1 97.2853 101.416 100.396
71 36 1 99.7188 100.707 102.119
72 36 1 98.6964 100.954 101.622
73 37 1 98.2122 101.843 97.1007
74 37 1 99.2392 102.486 102.69
75 38 1 98.2289 99.5677 101.444
76 38 1 97.926 100.503 100.754
77 39 1 98.8348 100.905 98.0714
78 39 1 99.8385 100.645 98.6514
79 40 1 100.664 98.1811 101.067
80 40 1 99.6185 98.0486 101.713
81 41 1 100.777 102.309 101.014
82 41 1 101.878 102.509 101.412
83 42 1 99.4049 102.034 99.7162
84 42 1 98.2308 102.088 99.9643
85 43 1 100.59 99.2334 101.167
86 43 1 99.9206 99.9395 100.446
87 44 1 102.302 99.573 101.493
88 44 1 101.387 99.9053 100.942
89 45 1 99.5496 99.4963 97.1728
90 45 1 100.474 100.19 102.713
91 46 1 101.852 97.8488 99.0645
92 46 1 102.024 98.847 98.4406
93 47 1 99.248 102.911 101.726
94 47 1 99.5782 102.676 100.564
95 48 1 97.588 99.0717 99.0321
96 48 1 102.804 98.3423 98.8965
97 49 1 98.0867 100.988 99.8344
98 49 1 98.929 101.572 100.562
99 50 1 96.9499 99.228 98.1743
100 50 1 97.9293 98.7182 97.8689
101 51 1 98.7167 100.11 97.4156
102 51 1 97.8775 100.906 97.5584
103 52 1 97.9295 100.854 98.6303
104 52 1 97.4764 100.105 99.3646
105 53 1 100.283 98.166 99.1223
106 53 1 100.163 97.703 100.221
107 54 1 101.889 102.225 100.372
108 54 1 101.095 101.472 100.013
109 55 1 101.891 97.0342 102.407
110 55 1 102.519 98.0179 102.558
111 56 1 97.3682 99.8652 97.3331
112 56 1 96.9554 100.688 102.551
113 57 1 102 99.0302 102.404
114 57 1 102.455 99.4441 97.3852
115 58 1 100.998 102.759 98.0699
116 58 1 101.752 97.6119 97.5409
117 59 1 99.303 101.68 98.6836
118 59 1 99.2506 102.803 98.2164
119 60 1 99.7313 98.6952 100.934
120 60 1 99.136 99.2618 100.099
121 61 1 102.278 101.19 101.963
122 61 1 101.5 101.494 101.089
123 62 1 102.65 101.81 101.048
124 62 1 102.333 101.27 100.044
125 63 1 102.854 97.0943 101.877
126 63 1 102.748 97.1221 97.1745
127 64 1 101.605 98.6738 97.3733
128 64 1 101.121 99.3438 98.2277
129 65 1 98.4614 99.6635 99.363
130 65 1 99.5762 99.9906 99.447
131 66 1 99.5726 100.88 101.021
132 66 1 99.2341 99.7208 101.19
133 67 1 100.516 101.383 101.552
134 67 1 101.375 100.602 101.685
135 68 1 98.0007 97.7531 100.508
136 68 1 98.7932 97.0631 99.9649
137 69 1 99.6438 101.001 99.8819
138 69 1 98.8311 100.668 99.1183
139 70 1 102.474 100.505 97.4672
140 70 1 101.368 100.848 97.7129
141 71 1 100.351 99.9116 97.7824
142 71 1 99.6943 100.755 97.3858
143 72 1 100.356 101.46 98.1054
144 72 1 101.512 101.786 98.2507
145 73 1 99.3251 98.1499 99.7493
146 73 1 99.4023 98.0427 98.5515
147 74 1 98.7198 98.72 100.969
148 74 1 98.0846 99.529 100.37
149 75 1 102.1 100.192 102.42
150 75 1 101.125 99.556 102.094
151 76 1 100.636 100.694 100.6
152 76 1 100.886 99.6744 100.054
153 77 1 101.619 99.7447 99.2835
154 77 1 100.98 100.356 98.4977
155 78 1 101.768 97.1018 99.7491
156 78 1 102.574 102.973 100.699
157 79 1 101.176 102.187 99.1631
158 79 1 100.554 102.658 100.054
159 80 1 101.036 97.3019 101.794
160 80 1 100.062 97.537 102.506
161 81 2 98.9174 98.8124 102.052
162 82 2 97.7377 97.0562 99.5881
163 83 2 102.954 102.211 99.87
164 84 2 98.7649 100.962 102.766
165 85 2 101.48 98.8895 100.445
166 86 2 98.4837 97.8448 98.0078
167 87 2 97.1716 99.7811 101.158
168 88 2 100.226 102.543 102.05
169 89 2 99.1016 97.6838 100.789
170 90 2 100.355 101.542 99.2421
171 91 2 101.997 99.9347 98.2508
172 92 2 98.5772 102.576 100.994
173 93 2 98.4717 102.113 101.931
174 94 2 102.301 100.659 100.968
175 95 2 99.2188 99.7799 98.2903
176 96 2 102.149 98.6647 99.6577
177 97 2 102.684 98.3275 97.7296
178 98 2 101.267 101.019 102.622
179 99 2 98.3183 101.872 98.1724
180 100 2 100.188 97.5406 98.0799
181 101 2 100.969 101.832 97.2897
182 102 2 98.2385 98.5865 99.8731
183 103 2 102.303 101.883 99.0691
184 104 2 99.2925 97.5861 97.4334
185 105 2 101.954 102.816 98.5755
186 106 2 99.7041 97.1716 99.3789
187 107 2 100.64 100.511 99.4536
188 108 2 97.4594 97.8142 102.267
189 109 2 98.8798 100.385 100.268
190 110 2 101.459 99.8392 97.2366
191 111 2 98.0525 99.7944 98.3332
192 112 2 102.131 97.7592 101.472
193 113 2 98.0156 101.622 101.123
194 114 2 101.147 98.726 99.2639
195 115 2 99.3157 101.886 97.6188
196 116 2 100.435 99.4516 99.0349
197 117 2 101.789 102.47 97.4256
198 118 2 103.073 100.428 100.198
199 119 2 100.625 98.5184 102.107
200 120 2 100.379 100.206 101.489
ITEM: TIMESTEP
4000
ITEM: NUMBER OF ATOMS
200
ITEM: BOX BOUNDS pp pp pp
9.6911839268460625e+01 1.0308816073153938e+02
9.7032927782732060e+01 1.0296707221726794e+02
9.7032927782732060e+01 1.0296707221726794e+02
ITEM: ATOMS id mol type x y z
1 1 1 97.0477 99.2646 100.049
2 1 1 102.647 99.5171 99.0785
3 2 1 100.241 97.2273 101.169
4 2 1 101.403 97.2788 100.766
5 3 1 100.238 98.8112 100.012
6 3 1 99.5025 98.9691 99.059
7 4 1 98.239 99.2669 102.899
8 4 1 98.9586 99.9582 102.234
9 5 1 99.5566 98.423 102.7
10 5 1 99.9763 99.3831 102.082
11 6 1 102.49 102.121 102.444
12 6 1 97.267 102.083 101.786
13 7 1 98.5939 97.3055 102.433
14 7 1 97.8066 97.0472 101.584
15 8 1 102.361 101.09 98.3481
16 8 1 102.63 102.15 97.9633
17 9 1 101.192 101.937 102.113
18 9 1 100.066 101.641 102.585
19 10 1 96.9669 100.336 98.3638
20 10 1 97.0226 101.073 99.3045
21 11 1 102.807 97.4017 99.361
22 11 1 97.6272 97.9419 98.8869
23 12 1 97.6023 98.6998 100.917
24 12 1 102.913 98.5973 101.768
25 13 1 97.8171 101.251 102.181
26 13 1 97.0363 100.987 101.348
27 14 1 99.4362 101.783 101.429
28 14 1 100.124 101.677 100.465
29 15 1 96.9851 102.505 98.7258
30 15 1 97.1825 101.458 98.1835
31 16 1 101.484 98.0582 102.472
32 16 1 100.924 102.95 102.902
33 17 1 96.8753 99.5889 102.244
34 17 1 97.21 98.7654 102.984
35 18 1 102.17 97.9051 100.361
36 18 1 97.0677 98.1937 99.9983
37 19 1 102.142 101.499 97.2846
38 19 1 97.1451 101.678 96.9968
39 20 1 101.178 98.0141 99.9809
40 20 1 100.898 97.3642 99.0483
41 21 1 99.019 98.7717 97.7774
42 21 1 98.3644 98.2189 102.849
43 22 1 98.6058 97.5747 99.1424
44 22 1 98.4884 98.6806 98.773
45 23 1 97.9397 97.0125 98.4193
46 23 1 97.5445 97.6885 97.4349
47 24 1 102.623 98.7722 100.765
48 24 1 101.6 98.6419 101.465
49 25 1 101.482 101.144 99.1025
50 25 1 101.549 100.566 100.106
51 26 1 98.6263 102.452 99.0922
52 26 1 97.6546 101.856 99.1711
53 27 1 100.153 102.401 98.681
54 27 1 100.086 102.568 97.4847
55 28 1 97.111 97.791 101.161
56 28 1 98.2552 98.0379 101.624
57 29 1 97.4265 102.436 97.679
58 29 1 102.987 97.4515 98.178
59 30 1 98.4406 102.851 97.5021
60 30 1 97.6261 102.68 102.613
61 31 1 102.332 100.523 99.329
62 31 1 102.202 99.7104 100.21
63 32 1 97.951 100.168 102.331
64 32 1 97.699 98.9468 102.026
65 33 1 100.609 99.1641 97.032
66 33 1 100.704 98.0475 97.3086
67 34 1 100.103 98.8915 98.116
68 34 1 101.112 98.2133 98.3563
69 35 1 97.4309 102.592 100.629
70 35 1 97.2756 101.482 100.322
71 36 1 99.6983 100.765 102.065
72 36 1 98.6379 100.88 101.521
73 37 1 98.2942 101.898 97.1294
74 37 1 99.3065 102.475 102.709
75 38 1 98.1818 99.6418 101.454
76 38 1 97.8747 100.546 100.73
77 39 1 98.7965 100.941 98.0422
78 39 1 99.8056 100.695 98.5839
79 40 1 100.674 98.1956 100.995
80 40 1 99.6393 98.0313 101.671
81 41 1 100.894 102.252 101.008
82 41 1 101.93 102.505 101.505
83 42 1 99.3598 102.077 99.724
84 42 1 98.1712 102.108 100.022
85 43 1 100.658 99.2267 101.158
86 43 1 99.9622 99.8882 100.446
87 44 1 102.273 99.4585 101.486
88 44 1 101.377 99.9672 100.985
89 45 1 99.5329 99.531 97.1302
90 45 1 100.457 100.171 102.63
91 46 1 101.876 97.8584 99.0159
92 46 1 101.973 98.929 98.4737
93 47 1 99.3476 102.926 101.701
94 47 1 99.6344 102.634 100.541
95 48 1 97.5478 99.0607 99.062
96 48 1 102.822 98.3731 98.9106
97 49 1 98.0724 101.003 99.7522
98 49 1 98.8882 101.519 100.513