ITEM: TIMESTEP
0
ITEM: NUMBER OF ATOMS
200
ITEM: BOX BOUNDS pp pp pp
9.7022792336786793e+01 1.0297720766321321e+02
9.7022792336786793e+01 1.0297720766321321e+02
9.7022792336786793e+01 1.0297720766321321e+02
ITEM: ATOMS id mol type x y z
1 1 1 97.7694 98.7569 99.4349
2 1 1 102.601 98.4529 99.0643
3 2 1 101.703 97.312 98.8908
4 2 1 101.116 97.5864 97.8332
5 3 1 98.772 100.472 97.6999
6 3 1 98.7971 99.3487 98.0463
7 4 1 98.4144 99.456 97.0471
8 4 1 99.3435 99.1324 102.425
9 5 1 100.81 99.152 101.842
10 5 1 100.288 99.0576 102.902
11 6 1 102.444 101.864 97.5266
12 6 1 102.024 101.062 102.727
13 7 1 102.866 102.233 101.293
14 7 1 97.897 102.925 101.378
15 8 1 102.293 100.532 98.9286
16 8 1 101.174 100.534 99.3257
17 9 1 100.314 102.021 102.837
18 9 1 101.397 101.73 97.2996
19 10 1 97.4473 100.36 98.6747
20 10 1 102.755 101.263 98.3296
21 11 1 102.762 97.4443 99.1039
22 11 1 97.8928 97.343 99.6467
23 12 1 97.2324 98.5024 101.553
24 12 1 97.8321 97.7556 102.134
25 13 1 99.5291 98.7032 101.425
26 13 1 98.6945 99.556 101.743
27 14 1 99.4461 102.79 100.84
28 14 1 100.15 101.854 100.654
29 15 1 97.5357 101.476 99.0674
30 15 1 98.5427 101.809 98.5434
31 16 1 101.03 102.926 102.969
32 16 1 100.928 97.1115 101.758
33 17 1 97.1652 98.0216 99.9609
34 17 1 97.3835 102.905 100.458
35 18 1 101.403 98.364 99.3177
36 18 1 100.403 98.849 99.7836
37 19 1 102.029 102.739 101.726
38 19 1 102.67 101.87 102.317
39 20 1 101.357 100.109 98.4177
40 20 1 100.931 99.0568 98.6364
41 21 1 99.2193 97.9136 98.1499
42 21 1 98.7831 97.5971 99.164
43 22 1 97.9982 98.6242 97.7161
44 22 1 98.249 97.4659 97.8962
45 23 1 98.1479 102.761 98.7153
46 23 1 97.2097 97.1646 98.1386
47 24 1 102.522 98.2336 100.794
48 24 1 101.601 97.5688 101.05
49 25 1 99.8565 101.749 99.6802
50 25 1 100.993 101.889 100.005
51 26 1 97.0301 101.934 100.174
52 26 1 102.332 102.892 100.649
53 27 1 102.179 97.2661 97.8205
54 27 1 97.2037 102.592 97.2601
55 28 1 97.8313 97.9481 100.84
56 28 1 98.9874 97.8747 101.007
57 29 1 97.4975 102.1 98.1925
58 29 1 97.3268 102.483 99.29
59 30 1 98.3129 102.267 97.534
60 30 1 99.0156 102.262 102.52
61 31 1 101.986 99.2434 98.7617
62 31 1 101.289 99.3878 99.6849
63 32 1 100.255 100.427 102.611
64 32 1 99.6132 99.7848 97.3964
65 33 1 97.0767 102.871 102.227
66 33 1 102.724 98.0495 102.361
67 34 1 100.963 98.6498 97.6471
68 34 1 100.588 98.0851 98.6198
69 35 1 97.6961 98.6895 102.601
70 35 1 102.909 99.0991 97.4641
71 36 1 99.1306 100.263 102.542
72 36 1 98.613 101.252 102.033
73 37 1 98.7078 102.303 101.411
74 37 1 98.8908 97.3527 102.046
75 38 1 99.6285 98.0334 102.472
76 38 1 98.5319 97.9817 97.0634
77 39 1 99.1817 102.551 99.448
78 39 1 98.9338 101.404 99.4574
79 40 1 101.258 98.4001 100.407
80 40 1 100.841 98.1358 101.507
81 41 1 100.091 102.403 101.605
82 41 1 100.068 97.0877 102.597
83 42 1 99.41 101.559 101.368
84 42 1 99.188 100.459 101.505
85 43 1 102.545 99.2382 101.127
86 43 1 101.812 99.6423 101.86
87 44 1 100.975 100.115 100.391
88 44 1 102.055 100.046 99.8051
89 45 1 100.646 99.6897 97.7471
90 45 1 101.243 100.004 102.701
91 46 1 99.3438 99.3294 99.2824
92 46 1 99.3858 100.133 98.4698
93 47 1 100.314 102.639 99.7595
94 47 1 99.7355 97.3344 98.9395
95 48 1 97.3986 99.0651 98.4974
96 48 1 102.635 99.868 98.168
97 49 1 102.668 99.1117 102.278
98 49 1 97.6643 99.4256 101.613
99 50 1 98.0751 100.625 102.776
100 50 1 97.0798 100.555 97.4556
101 51 1 97.4424 99.7968 102.653
102 51 1 97.8513 99.8439 97.8411
103 52 1 98.6961 101.369 97.1715
104 52 1 97.4861 101.535 97.1299
105 53 1 100.239 98.261 100.664
106 53 1 100.46 97.1686 100.723
107 54 1 101.103 102.25 101.064
108 54 1 100.422 101.416 101.64
109 55 1 101.588 98.9814 102.672
110 55 1 102.308 99.9503 102.796
111 56 1 98.016 100.406 101.737
112 56 1 102.843 100.22 101.473
113 57 1 100.9 100.733 97.4571
114 57 1 102.003 100.545 97.687
115 58 1 101.703 97.6625 102.331
116 58 1 102.144 98.3328 97.2704
117 59 1 97.4104 97.7355 97.141
118 59 1 102.885 98.1852 98.0617
119 60 1 98.5104 102.976 100.465
120 60 1 98.4962 98.1695 100.009
121 61 1 101.916 100.684 101.792
122 61 1 102.571 101.202 100.926
123 62 1 101.938 101.935 100.47
124 62 1 102.296 101.605 99.3078
125 63 1 97.4535 101.378 101.657
126 63 1 97.4882 100.69 100.719
127 64 1 100.412 100.618 98.3559
128 64 1 99.7696 100.734 99.3423
129 65 1 98.5083 99.2774 99.9842
130 65 1 99.3225 99.6219 100.821
131 66 1 100.966 100.232 101.572
132 66 1 101.46 99.3397 100.854
133 67 1 102.914 99.8683 100.405
134 67 1 102.901 100.904 99.8322
135 68 1 97.8636 101.925 100.796
136 68 1 99.0268 101.923 100.369
137 69 1 100.358 99.2796 100.798
138 69 1 99.4086 98.7604 100.189
139 70 1 100.452 101.714 97.9133
140 70 1 100.631 101.453 99.0398
141 71 1 99.4286 102.034 97.6009
142 71 1 99.921 102.228 98.7247
143 72 1 100.198 102.774 97.735
144 72 1 101.334 102.467 98.0698
145 73 1 98.6434 98.6046 98.7765
146 73 1 99.6962 98.3605 99.1712
147 74 1 97.769 100.129 99.7596
148 74 1 98.3205 100.003 100.839
149 75 1 101.91 101.68 101.601
150 75 1 101.113 101.16 100.916
151 76 1 100.513 100.974 100.04
152 76 1 99.94 99.9069 100.021
153 77 1 98.031 101.16 99.9416
154 77 1 98.4524 100.727 98.842
155 78 1 102.251 102.604 99.6379
156 78 1 102.107 97.7851 99.9029
157 79 1 101.408 102.19 99.1042
158 79 1 100.712 97.0491 98.7003
159 80 1 100.096 97.9444 97.5714
160 80 1 99.2102 97.1938 97.2606
161 81 2 99.2624 98.6413 97.4229
162 82 2 98.212 102.19 99.734
163 83 2 101.31 102.906 100.084
164 84 2 99.9611 99.7563 101.734
165 85 2 102.264 98.9188 100.005
166 86 2 97.7439 98.0228 98.7042
167 87 2 97.5382 98.9851 100.55
168 88 2 99.912 97.6559 101.551
169 89 2 99.5201 97.556 100.031
170 90 2 99.4233 100.901 100.404
171 91 2 102.91 99.5383 99.3445
172 92 2 98.4521 101.07 100.918
173 93 2 97.8466 102.138 102.243
174 94 2 101.756 101.01 100.085
175 95 2 99.9143 98.9005 98.2325
176 96 2 100.382 99.8387 99.069
177 97 2 101.702 99.349 97.6995
178 98 2 101.059 101.141 102.398
179 99 2 97.871 101.034 97.9631
180 100 2 101.772 98.2781 98.3196
181 101 2 102.031 102.668 102.893
182 102 2 98.3624 99.7024 98.9118
183 103 2 101.558 101.234 98.4223
184 104 2 98.1564 102.969 102.761
185 105 2 102.436 102.384 98.4757
186 106 2 100.595 97.7343 99.6824
187 107 2 100.167 100.464 100.987
188 108 2 102.839 97.4727 101.414
189 109 2 98.483 98.8463 100.996
190 110 2 99.7007 100.924 97.4043
191 111 2 102.928 100.779 102.341
192 112 2 100.772 98.0767 102.563
193 113 2 98.6708 98.3881 101.931
194 114 2 98.8265 100.304 99.7663
195 115 2 99.086 102.801 98.2382
196 116 2 99.457 101.219 98.4051
197 117 2 99.6042 101.316 102.405
198 118 2 101.192 102.164 102.242
199 119 2 101.866 98.5634 101.698
200 120 2 101.914 100.306 100.863
ITEM: TIMESTEP
1000
ITEM: NUMBER OF ATOMS
200
ITEM: BOX BOUNDS pp pp pp
9.6992870902327240e+01 1.0300712909767276e+02
9.7022792336786793e+01 1.0297720766321321e+02
9.7022792336786793e+01 1.0297720766321321e+02
ITEM: ATOMS id mol type x y z
1 1 1 97.7176 98.7394 99.4391
2 1 1 102.612 98.4448 99.0866
3 2 1 101.698 97.3374 98.9284
4 2 1 101.121 97.5522 97.9232
5 3 1 98.8265 100.478 97.7519
6 3 1 98.8475 99.3314 98.0716
7 4 1 98.4661 99.4925 97.0446
8 4 1 99.3676 99.1122 102.421
9 5 1 100.863 99.1833 101.814
10 5 1 100.308 99.0401 102.886
11 6 1 102.435 101.845 97.5161
12 6 1 102.038 100.996 102.803
13 7 1 102.988 102.277 101.29
14 7 1 97.9219 103.03 101.334
15 8 1 102.329 100.513 98.8579
16 8 1 101.254 100.688 99.2798
17 9 1 100.287 101.988 102.798
18 9 1 101.416 101.805 97.2416
19 10 1 97.4589 100.394 98.735
20 10 1 102.793 101.296 98.3521
21 11 1 102.8 97.4281 99.0976
22 11 1 97.8893 97.3163 99.6492
23 12 1 97.1019 98.4651 101.564
24 12 1 97.805 97.7491 102.101
25 13 1 99.5338 98.7579 101.401
26 13 1 98.6903 99.5863 101.752
27 14 1 99.5068 102.741 100.782
28 14 1 100.165 101.758 100.668
29 15 1 97.6503 101.417 99.0059
30 15 1 98.5799 101.808 98.4605
31 16 1 100.971 102.923 103.014
32 16 1 100.865 97.1411 101.803
33 17 1 97.1653 97.9897 99.9287
34 17 1 97.3775 102.853 100.432
35 18 1 101.393 98.3848 99.3329
36 18 1 100.365 98.8632 99.7012
37 19 1 102.093 102.664 101.69
38 19 1 102.728 101.88 102.357
39 20 1 101.387 100.127 98.4098
40 20 1 100.907 99.0762 98.6469
41 21 1 99.2535 97.9212 98.1565
42 21 1 98.7611 97.5968 99.1271
43 22 1 97.942 98.5688 97.6792
44 22 1 98.255 97.4371 97.9064
45 23 1 98.1124 102.744 98.7439
46 23 1 97.2149 97.1955 98.137
47 24 1 102.513 98.1876 100.705
48 24 1 101.553 97.5288 101.057
49 25 1 99.8338 101.728 99.6683
50 25 1 100.969 101.915 100.021
51 26 1 96.9963 101.93 100.21
52 26 1 102.386 102.943 100.631
53 27 1 102.223 97.2609 97.8881
54 27 1 97.1207 102.602 97.2899
55 28 1 97.7538 97.9414 100.762
56 28 1 98.9219 97.8644 101.006
57 29 1 97.472 102.086 98.1897
58 29 1 97.2487 102.454 99.3078
59 30 1 98.3529 102.312 97.5658
60 30 1 98.954 102.226 102.494
61 31 1 101.942 99.2682 98.808
62 31 1 101.288 99.3249 99.8201
63 32 1 100.312 100.434 102.596
64 32 1 99.5715 99.7778 97.3388
65 33 1 96.9718 102.91 102.296
66 33 1 102.726 98.0755 102.438
67 34 1 100.994 98.555 97.6518
68 34 1 100.585 98.0789 98.6548
69 35 1 97.6713 98.7011 102.605
70 35 1 102.762 98.9915 97.352
71 36 1 99.1459 100.338 102.545
72 36 1 98.5583 101.257 102.046
73 37 1 98.7301 102.386 101.428
74 37 1 98.9082 97.364 102.152
75 38 1 99.6447 98.0398 102.414
76 38 1 98.5671 97.9739 97.0467
77 39 1 99.151 102.637 99.5214
78 39 1 98.8537 101.479 99.4155
79 40 1 101.337 98.3563 100.444
80 40 1 100.837 98.1908 101.506
81 41 1 100.04 102.364 101.633
82 41 1 100.067 97.1131 102.601
83 42 1 99.3723 101.578 101.311
84 42 1 99.222 100.476 101.502
85 43 1 102.549 99.2112 101.114
86 43 1 101.803 99.637 101.864
87 44 1 100.991 100.198 100.364
88 44 1 102.042 100.069 99.7709
89 45 1 100.604 99.7564 97.7503
90 45 1 101.324 99.989 102.794
91 46 1 99.3093 99.3888 99.2504
92 46 1 99.6172 100.099 98.3594
93 47 1 100.249 102.689 99.7504
94 47 1 99.7508 97.3525 98.893
95 48 1 97.4376 98.9869 98.5001
96 48 1 102.737 99.7895 98.1588
97 49 1 102.663 99.1126 102.225
98 49 1 97.6461 99.3531 101.662
99 50 1 98.093 100.562 102.935
100 50 1 97.0501 100.575 97.5586
101 51 1 97.4056 99.7239 102.787
102 51 1 97.8494 99.8051 97.8977
103 52 1 98.7511 101.388 97.1959
104 52 1 97.5755 101.604 97.0833
105 53 1 100.156 98.2538 100.663
106 53 1 100.514 97.155 100.726
107 54 1 101.045 102.253 101.114
108 54 1 100.438 101.392 101.676
109 55 1 101.66 98.9317 102.645
110 55 1 102.369 99.937 102.82
111 56 1 98.0146 100.404 101.817
112 56 1 102.907 100.157 101.497
113 57 1 100.968 100.792 97.4628
114 57 1 102.052 100.526 97.7518
115 58 1 101.736 97.6695 102.17
116 58 1 101.992 98.1324 97.2966
117 59 1 97.4452 97.7124 97.1785
118 59 1 102.879 98.2059 98.0818
119 60 1 98.5694 102.945 100.408
120 60 1 98.5211 98.1619 99.9795
121 61 1 102.018 100.641 101.828
122 61 1 102.578 101.226 100.937
123 62 1 101.939 101.998 100.444
124 62 1 102.325 101.568 99.2893
125 63 1 97.4414 101.279 101.629
126 63 1 97.4242 100.656 100.697
127 64 1 100.467 100.718 98.4134
128 64 1 99.695 100.733 99.3076
129 65 1 98.4527 99.2487 100.005
130 65 1 99.2643 99.684 100.804
131 66 1 100.984 100.225 101.594
132 66 1 101.413 99.3269 100.873
133 67 1 102.918 99.7965 100.367
134 67 1 102.915 100.812 99.7594
135 68 1 97.8872 101.953 100.903
136 68 1 98.9841 101.951 100.389
137 69 1 100.314 99.2729 100.85
138 69 1 99.4237 98.8179 100.201
139 70 1 100.52 101.748 97.8745
140 70 1 100.665 101.563 99.0278
141 71 1 99.4685 102.058 97.6265
142 71 1 99.8932 102.239 98.7309
143 72 1 100.16 102.851 97.8549
144 72 1 101.311 102.482 98.0391
145 73 1 98.5314 98.5696 98.7048
146 73 1 99.6349 98.3519 99.1557
147 74 1 97.7227 100.12 99.7301
148 74 1 98.1794 99.9626 100.826
149 75 1 101.861 101.66 101.573
150 75 1 101.088 101.097 100.881
151 76 1 100.506 100.984 99.9474
152 76 1 99.9117 99.9403 100.026
153 77 1 97.9903 101.104 99.9355
154 77 1 98.5062 100.7 98.8366
155 78 1 102.281 102.597 99.6374
156 78 1 102.091 97.8226 99.8471
157 79 1 101.491 102.192 99.1302
158 79 1 100.711 96.997 98.8062
159 80 1 100.11 97.9336 97.5253
160 80 1 99.1804 97.1306 97.267
161 81 2 99.2468 98.6503 97.371
162 82 2 98.1321 102.192 99.784
163 83 2 101.29 102.942 100.086
164 84 2 99.9393 99.7993 101.745
165 85 2 102.27 98.9587 99.9878
166 86 2 97.6882 97.9739 98.7177
167 87 2 97.4892 98.9707 100.551
168 88 2 99.8586 97.6134 101.486
169 89 2 99.5405 97.6085 100.05
170 90 2 99.3565 100.892 100.349
171 91 2 102.936 99.5422 99.3387
172 92 2 98.4139 101.05 100.953
173 93 2 97.7815 102.181 102.121
174 94 2 101.799 101.048 100.07
175 95 2 99.9624 98.8842 98.1955
176 96 2 100.474 99.9142 99.1404
177 97 2 101.768 99.3229 97.7049
178 98 2 101.121 101.128 102.385
179 99 2 97.8988 101.041 97.9804
180 100 2 101.755 98.3003 98.3468
181 101 2 102.051 102.757 102.883
182 102 2 98.2957 99.6713 98.9174
183 103 2 101.571 101.333 98.3149
184 104 2 98.1325 102.927 102.773
185 105 2 102.442 102.397 98.4707
186 106 2 100.583 97.7749 99.6828
187 107 2 100.15 100.522 100.951
188 108 2 102.906 97.472 101.403
189 109 2 98.4408 98.8568 100.99
190 110 2 99.7727 100.927 97.449
191 111 2 103.04 100.766 102.417
192 112 2 100.817 98.0308 102.584
193 113 2 98.6645 98.409 101.921
194 114 2 98.7633 100.229 99.8639
195 115 2 99.0535 102.828 98.3291
196 116 2 99.4883 101.289 98.4081
197 117 2 99.5815 101.299 102.33
198 118 2 101.173 102.169 102.177
199 119 2 101.945 98.525 101.629
200 120 2 101.954 100.251 100.835
ITEM: TIMESTEP
2000
ITEM: NUMBER OF ATOMS
200
ITEM: BOX BOUNDS pp pp pp
9.6962648752451955e+01 1.0303735124754805e+02
9.7022792336786793e+01 1.0297720766321321e+02
9.7022792336786793e+01 1.0297720766321321e+02
ITEM: ATOMS id mol type x y z
1 1 1 97.6961 98.7126 99.4243
2 1 1 102.602 98.4582 99.0759
3 2 1 101.791 97.3215 98.8472
4 2 1 101.157 97.5759 97.8471
5 3 1 98.6958 100.417 97.7754
6 3 1 98.8272 99.2882 98.0792
7 4 1 98.4933 99.5536 97.0742
8 4 1 99.1616 98.8988 102.332
9 5 1 100.889 99.2068 101.823
10 5 1 100.25 98.9851 102.824
11 6 1 102.565 101.89 97.5008
12 6 1 102.094 101.063 102.795
13 7 1 102.966 102.248 101.288
14 7 1 97.8224 102.969 101.368
15 8 1 102.327 100.47 98.8743
16 8 1 101.221 100.522 99.353
17 9 1 100.414 101.964 102.84
18 9 1 101.449 101.727 97.3895
19 10 1 97.3905 100.391 98.706
20 10 1 102.769 101.278 98.358
21 11 1 102.826 97.4616 99.0816
22 11 1 97.8651 97.3666 99.583
23 12 1 97.1428 98.4732 101.563
24 12 1 97.6862 97.689 102.192
25 13 1 99.4243 98.7309 101.306
26 13 1 98.6886 99.5745 101.719
27 14 1 99.4745 102.736 100.88
28 14 1 100.196 101.813 100.726
29 15 1 97.4631 101.431 99.0348
30 15 1 98.5427 101.839 98.5592
31 16 1 101.118 102.926 102.951
32 16 1 100.932 97.1789 101.795
33 17 1 97.044 97.983 99.942
34 17 1 97.4022 102.902 100.428
35 18 1 101.416 98.4442 99.307
36 18 1 100.406 98.8207 99.7411
37 19 1 102.089 102.713 101.613
38 19 1 102.71 101.858 102.308
39 20 1 101.334 100.158 98.3948
40 20 1 100.924 99.0737 98.657
41 21 1 99.2213 97.9458 98.1666
42 21 1 98.7788 97.5318 99.1302
43 22 1 98.0247 98.7245 97.6665
44 22 1 98.2618 97.4929 97.8372
45 23 1 98.0681 102.814 98.6824
46 23 1 97.1199 97.1487 98.1616
47 24 1 102.548 98.2671 100.771
48 24 1 101.607 97.523 101.01
49 25 1 99.8517 101.741 99.7229
50 25 1 101.013 101.865 100.072
51 26 1 96.9789 101.963 100.183
52 26 1 102.426 102.981 100.563
53 27 1 102.222 97.2723 97.7568
54 27 1 97.1406 102.667 97.229
55 28 1 97.7873 97.9051 100.765
56 28 1 98.9596 97.8206 100.973
57 29 1 97.4136 102.099 98.1681
58 29 1 97.1948 102.494 99.2699
59 30 1 98.2866 102.286 97.613
60 30 1 98.9048 102.255 102.546
61 31 1 101.949 99.3311 98.8288
62 31 1 101.288 99.382 99.7977
63 32 1 100.299 100.484 102.566
64 32 1 99.5882 99.7888 97.2944
65 33 1 96.9302 102.898 102.225
66 33 1 102.727 98.0901 102.431
67 34 1 100.896 98.6508 97.6066
68 34 1 100.575 98.0875 98.614
69 35 1 97.5782 98.6855 102.596
70 35 1 102.886 99.0914 97.4156
71 36 1 99.0504 100.329 102.52
72 36 1 98.5501 101.337 102.023
73 37 1 98.6507 102.351 101.473
74 37 1 98.8099 97.38 102.044
75 38 1 99.662 98.0017 102.494
76 38 1 98.5295 98.0486 96.9358
77 39 1 99.1607 102.524 99.4152
78 39 1 98.9405 101.374 99.4703
79 40 1 101.274 98.3906 100.356
80 40 1 100.832 98.2437 101.452
81 41 1 100.13 102.4 101.666
82 41 1 100.122 97.092 102.659
83 42 1 99.3942 101.65 101.344
84 42 1 99.2372 100.528 101.515
85 43 1 102.622 99.2048 101.132
86 43 1 101.894 99.7119 101.895
87 44 1 101.045 100.173 100.405
88 44 1 102.134 100.059 99.7959
89 45 1 100.606 99.686 97.7217
90 45 1 101.318 100.023 102.796
91 46 1 99.3029 99.3788 99.2754
92 46 1 99.5796 100.073 98.3117
93 47 1 100.395 102.623 99.631
94 47 1 99.7805 97.3294 98.9009
95 48 1 97.3319 98.9544 98.4739
96 48 1 102.746 99.8533 98.1363
97 49 1 102.738 99.1286 102.249
98 49 1 97.658 99.3792 101.651
99 50 1 98.0416 100.586 102.929
100 50 1 96.9709 100.678 97.4672
101 51 1 97.4166 99.7882 102.653
102 51 1 97.7582 99.8167 97.8236
103 52 1 98.7362 101.351 97.1869
104 52 1 97.5111 101.605 97.1964
105 53 1 100.109 98.1732 100.635
106 53 1 100.509 97.094 100.653
107 54 1 101.116 102.224 101.087
108 54 1 100.444 101.348 101.663
109 55 1 101.635 98.9871 102.648
110 55 1 102.385 99.9605 102.859
111 56 1 98.0217 100.405 101.819
112 56 1 102.977 100.161 101.508
113 57 1 100.909 100.8 97.5017
114 57 1 102.032 100.531 97.7508
115 58 1 101.77 97.6309 102.28
116 58 1 102.051 98.2374 97.3309
117 59 1 97.4438 97.805 97.2261
118 59 1 102.831 98.1499 98.0935
119 60 1 98.488 102.954 100.395
120 60 1 98.5402 98.1412 100
121 61 1 102.133 100.677 101.851
122 61 1 102.616 101.216 100.925
123 62 1 102.004 101.963 100.521
124 62 1 102.293 101.596 99.3487
125 63 1 97.5194 101.358 101.64
126 63 1 97.3972 100.7 100.696
127 64 1 100.399 100.709 98.3643
128 64 1 99.732 100.706 99.3055
129 65 1 98.4425 99.2593 99.9427
130 65 1 99.1932 99.7626 100.778
131 66 1 101.072 100.311 101.6
132 66 1 101.504 99.3263 100.943
133 67 1 103 99.8005 100.382
134 67 1 102.969 100.813 99.7344
135 68 1 97.861 102.017 100.859
136 68 1 98.9604 101.969 100.357
137 69 1 100.381 99.2073 100.87
138 69 1 99.4136 98.8861 100.233
139 70 1 100.464 101.715 97.9297
140 70 1 100.698 101.415 99.0983
141 71 1 99.4812 102.061 97.5808
142 71 1 99.9718 102.17 98.7193
143 72 1 100.2 102.816 97.847
144 72 1 101.322 102.494 98.0386
145 73 1 98.6173 98.6206 98.9043
146 73 1 99.6491 98.2854 99.316
147 74 1 97.7372 100.152 99.7646
148 74 1 98.1415 99.9858 100.86
149 75 1 101.903 101.674 101.58
150 75 1 101.162 101.141 100.899
151 76 1 100.478 100.96 100.061
152 76 1 99.9555 99.8899 100.068
153 77 1 98.0192 101.215 99.9752
154 77 1 98.3877 100.743 98.9012
155 78 1 102.277 102.668 99.6164
156 78 1 102.092 97.8235 99.8196
157 79 1 101.417 102.21 99.1359
158 79 1 100.771 97.0483 98.7403
159 80 1 100.107 97.9262 97.5966
160 80 1 99.2153 97.2327 97.2245
161 81 2 99.2589 98.6495 97.3914
162 82 2 98.1014 102.21 99.7039
163 83 2 101.35 102.884 100.107
164 84 2 99.8489 99.7053 101.842
165 85 2 102.258 98.961 100.016
166 86 2 97.8022 98.0232 98.6342
167 87 2 97.4536 98.9244 100.532
168 88 2 99.8909 97.6505 101.54
169 89 2 99.5551 97.4648 99.9926
170 90 2 99.4661 100.881 100.435
171 91 2 103.015 99.5306 99.3217
172 92 2 98.4416 101.073 100.935
173 93 2 97.742 102.162 102.221
174 94 2 101.807 101.002 100.069
175 95 2 99.92 98.8827 98.2915
176 96 2 100.416 99.8553 99.1117
177 97 2 101.757 99.3272 97.736
178 98 2 101.162 101.116 102.394
179 99 2 97.8847 101.028 97.986
180 100 2 101.755 98.2677 98.3035
181 101 2 102.098 102.575 102.815
182 102 2 98.1824 99.659 98.8525
183 103 2 101.579 101.261 98.4529
184 104 2 98.1053 102.948 102.82
185 105 2 102.421 102.366 98.4771
186 106 2 100.654 97.7189 99.6711
187 107 2 100.165 100.347 101.056
188 108 2 102.911 97.4948 101.345
189 109 2 98.4491 98.8817 100.895
190 110 2 99.7232 100.907 97.4023
191 111 2 103.063 100.821 102.363
192 112 2 100.815 98.0856 102.558
193 113 2 98.373 98.3831 101.773
194 114 2 98.8042 100.262 99.8917
195 115 2 99.0866 102.804 98.2446
196 116 2 99.3966 101.186 98.3755
197 117 2 99.5984 101.436 102.412
198 118 2 101.244 102.154 102.207
199 119 2 101.92 98.545 101.665
200 120 2 102.043 100.308 100.865
ITEM: TIMESTEP
3000
ITEM: NUMBER OF ATOMS
200
ITEM: BOX BOUNDS pp pp pp
9.6932122864920800e+01 1.0306787713507920e+02
9.7022792336786793e+01 1.0297720766321321e+02
9.7022792336786793e+01 1.0297720766321321e+02
ITEM: ATOMS id mol type x y z
1 1 1 97.6258 98.7465 99.4025
2 1 1 102.632 98.468 99.045
3 2 1 101.803 97.3791 98.8566
4 2 1 101.16 97.6231 97.8401
5 3 1 98.7844 100.451 97.72
6 3 1 98.8214 99.384 98.109
7 4 1 98.42 99.5171 97.0798
8 4 1 99.1946 98.9353 102.418
9 5 1 100.858 99.1549 101.933
10 5 1 100.186 98.9694 102.86
11 6 1 102.494 101.898 97.5721
12 6 1 102.141 101.151 102.729
13 7 1 103.097 102.271 101.268
14 7 1 97.9135 97.0461 101.311
15 8 1 102.404 100.353 98.7527
16 8 1 101.376 100.737 99.2948
17 9 1 100.31 101.906 102.775
18 9 1 101.417 101.765 97.258
19 10 1 97.3752 100.407 98.7026
20 10 1 102.795 101.343 98.5048
21 11 1 102.836 97.3938 99.1415
22 11 1 97.8131 97.3406 99.5658
23 12 1 97.1603 98.4704 101.625
24 12 1 97.7251 97.6348 102.206
25 13 1 99.4445 98.732 101.411
26 13 1 98.6188 99.5575 101.807
27 14 1 99.4736 102.739 100.859
28 14 1 100.196 101.796 100.678
29 15 1 97.5674 101.45 98.9909
30 15 1 98.6066 101.874 98.5626
31 16 1 101.147 102.896 96.9988
32 16 1 100.887 97.2158 101.804
33 17 1 97.035 97.9649 99.9606
34 17 1 97.3684 102.892 100.416
35 18 1 101.439 98.3905 99.3463
36 18 1 100.394 98.8785 99.6545
37 19 1 102.097 102.689 101.606
38 19 1 102.833 101.909 102.241
39 20 1 101.411 100.141 98.3452
40 20 1 100.94 99.1417 98.6235
41 21 1 99.3327 97.8801 98.1509
42 21 1 98.7073 97.552 99.0943
43 22 1 98.0088 98.6586 97.7053
44 22 1 98.3108 97.51 97.8885
45 23 1 98.0413 102.761 98.6661
46 23 1 97.0687 97.112 98.201
47 24 1 102.561 98.2171 100.832
48 24 1 101.61 97.5489 101.053
49 25 1 99.8828 101.735 99.6869
50 25 1 101.073 101.839 100.061
51 26 1 96.9377 101.936 100.216
52 26 1 102.451 102.951 100.615
53 27 1 102.187 97.2552 97.7481
54 27 1 97.0771 102.637 97.2484
55 28 1 97.7959 97.9804 100.776
56 28 1 98.9368 97.858 100.957
57 29 1 97.3339 102.061 98.1176
58 29 1 97.1856 102.388 99.2584
59 30 1 98.29 102.207 97.6439
60 30 1 98.9709 102.29 102.564
61 31 1 102.004 99.2764 98.783
62 31 1 101.372 99.2956 99.812
63 32 1 100.258 100.417 102.617
64 32 1 99.5443 99.7179 97.3508
65 33 1 102.94 102.953 102.234
66 33 1 102.723 98.1391 102.495
67 34 1 100.963 98.6821 97.6372
68 34 1 100.561 98.1068 98.6109
69 35 1 97.6402 98.6793 102.596
70 35 1 102.83 98.9203 97.3712
71 36 1 98.9892 100.325 102.576
72 36 1 98.5033 101.335 102.033
73 37 1 98.685 102.328 101.487
74 37 1 98.7974 97.3611 102.065
75 38 1 99.6354 98.0068 102.475
76 38 1 98.5024 98.0357 102.922
77 39 1 99.0895 102.552 99.4187
78 39 1 98.9541 101.351 99.4111
79 40 1 101.312 98.3356 100.408
80 40 1 100.788 98.2282 101.419
81 41 1 100.105 102.409 101.675
82 41 1 100.152 97.0724 102.677
83 42 1 99.3721 101.611 101.303
84 42 1 99.1909 100.505 101.572
85 43 1 102.597 99.2199 101.136
86 43 1 101.835 99.6159 101.923
87 44 1 101.04 100.087 100.407
88 44 1 102.132 100.036 99.7941
89 45 1 100.575 99.7754 97.74
90 45 1 101.249 99.9674 102.776
91 46 1 99.1453 99.3382 99.2006
92 46 1 99.6719 100.081 98.3919
93 47 1 100.442 102.622 99.6624
94 47 1 99.7874 97.2915 98.9365
95 48 1 97.227 99.0112 98.4247
96 48 1 102.917 99.9033 97.8844
97 49 1 102.731 99.1847 102.198
98 49 1 97.6013 99.4036 101.619
99 50 1 98.0059 100.547 102.935
100 50 1 103.066 100.937 97.5003
101 51 1 97.33 99.7306 102.725
102 51 1 97.8425 99.8615 97.8854
103 52 1 98.7365 101.362 97.1347
104 52 1 97.5342 101.634 97.0498
105 53 1 100.019 98.1819 100.616
106 53 1 100.492 97.0752 100.705
107 54 1 101.095 102.228 101.089
108 54 1 100.368 101.363 101.652
109 55 1 101.636 98.9813 102.728
110 55 1 102.395 100.01 102.821
111 56 1 97.9503 100.4 101.843
112 56 1 102.976 100.249 101.461
113 57 1 100.944 100.823 97.4439
114 57 1 102.101 100.583 97.6731
115 58 1 101.833 97.6128 102.261
116 58 1 102.023 98.2127 97.3358
117 59 1 97.4095 97.7478 97.2403
118 59 1 102.847 98.1201 98.1027
119 60 1 98.5301 97.028 100.345
120 60 1 98.5441 98.1718 99.9613
121 61 1 102.053 100.644 101.821
122 61 1 102.7 101.226 101.058
123 62 1 102.047 101.99 100.532
124 62 1 102.235 101.547 99.387
125 63 1 97.5071 101.415 101.635
126 63 1 97.4045 100.795 100.669
127 64 1 100.469 100.734 98.354
128 64 1 99.7532 100.674 99.3169
129 65 1 98.36 99.3256 100.004
130 65 1 99.14 99.7412 100.835
131 66 1 101.038 100.266 101.667
132 66 1 101.4 99.2828 101.002
133 67 1 103.04 99.8879 100.414
134 67 1 102.961 100.834 99.6839
135 68 1 97.9155 102.007 100.851
136 68 1 98.9542 101.937 100.315
137 69 1 100.314 99.1972 100.869
138 69 1 99.402 98.904 100.161
139 70 1 100.506 101.767 97.8885
140 70 1 100.693 101.478 99.0566
141 71 1 99.5013 102.071 97.5722
142 71 1 99.9693 102.177 98.6919
143 72 1 100.237 102.846 97.8397
144 72 1 101.36 102.465 98.0263
145 73 1 98.5934 98.5014 98.6572
146 73 1 99.5916 98.283 99.2731
147 74 1 97.6918 100.209 99.7611
148 74 1 98.1447 100.031 100.834
149 75 1 101.952 101.655 101.674
150 75 1 101.175 101.062 100.953
151 76 1 100.532 100.919 100.065
152 76 1 99.8928 99.8798 100.09
153 77 1 97.9987 101.197 99.8809
154 77 1 98.4249 100.646 98.8113
155 78 1 102.325 102.575 99.6947
156 78 1 102.145 97.8042 99.8809
157 79 1 101.456 102.241 99.1458
158 79 1 100.761 97.0957 98.7136
159 80 1 100.126 97.9631 97.4996
160 80 1 99.2677 97.1873 97.2229
161 81 2 99.1906 98.6308 97.4653
162 82 2 98.0875 102.242 99.7406
163 83 2 101.363 102.898 100.129
164 84 2 99.8252 99.6991 101.899
165 85 2 102.341 98.8696 100.014
166 86 2 97.6529 98.0208 98.6324
167 87 2 97.3353 98.9554 100.549
168 88 2 99.8567 97.6483 101.528
169 89 2 99.5775 97.4346 99.9938
170 90 2 99.4233 100.91 100.394
171 91 2 103.016 99.5094 99.3556
172 92 2 98.4162 101.112 100.961
173 93 2 97.7701 102.278 102.213
174 94 2 101.89 100.99 100.203
175 95 2 99.9063 98.8919 98.2562
176 96 2 100.587 99.9719 99.2292
177 97 2 101.873 99.3855 97.6962
178 98 2 101.116 101.078 102.379
179 99 2 97.9336 101.071 97.9257
180 100 2 101.743 98.3207 98.3259
181 101 2 102.124 102.518 102.759
182 102 2 98.1049 99.5704 98.8862
183 103 2 101.615 101.393 98.313
184 104 2 98.1733 97.0014 102.877
185 105 2 102.383 102.397 98.545
186 106 2 100.612 97.7505 99.6904
187 107 2 100.163 100.349 101.022
188 108 2 103.04 97.491 101.367
189 109 2 98.4595 98.8733 100.909
190 110 2 99.7598 100.95 97.4127
191 111 2 96.9718 100.827 102.374
192 112 2 100.86 98.049 102.512
193 113 2 98.4149 98.3554 101.798
194 114 2 98.776 100.278 99.8072
195 115 2 99.0745 102.821 98.2521
196 116 2 99.4234 101.185 98.4098
197 117 2 99.5562 101.298 102.339
198 118 2 101.195 102.177 102.195
199 119 2 101.889 98.5608 101.715
200 120 2 102.005 100.141 100.885
ITEM: TIMESTEP
4000
ITEM: NUMBER OF ATOMS
200
ITEM: BOX BOUNDS pp pp pp
9.6901290187119557e+01 1.0309870981288044e+02
9.7022792336786793e+01 1.0297720766321321e+02
9.7022792336786793e+01 1.0297720766321321e+02
ITEM: ATOMS id mol type x y z
1 1 1 97.5822 98.6104 99.4327
2 1 1 102.616 98.5054 99.1091
3 2 1 101.778 97.3557 98.7926
4 2 1 101.072 97.6396 97.7947
5 3 1 98.7867 100.428 97.7755
6 3 1 98.891 99.3163 98.1524
7 4 1 98.4368 99.5325 97.0375
8 4 1 99.086 98.7696 102.364
9 5 1 100.83 99.1689 101.879
10 5 1 100.114 98.8982 102.771
11 6 1 102.619 101.97 97.5389
12 6 1 102.169 101.227 102.759
13 7 1 103.133 102.283 101.182
14 7 1 97.8767 97.0563 101.288
15 8 1 102.395 100.38 98.814
16 8 1 101.378 100.708 99.3667
17 9 1 100.24 101.796 102.851
18 9 1 101.382 101.76 97.3034
19 10 1 97.3269 100.425 98.5876
20 10 1 102.758 101.36 98.4512
21 11 1 102.872 97.4684 99.0964
22 11 1 97.771 97.5333 99.6271
23 12 1 97.19 98.4864 101.565
24 12 1 97.679 97.6157 102.208
25 13 1 99.3597 98.7241 101.282
26 13 1 98.6128 99.5129 101.755
27 14 1 99.497 102.68 100.853
28 14 1 100.239 101.778 100.717
29 15 1 97.5398 101.395 98.9712
30 15 1 98.5665 101.843 98.6127
31 16 1 101.264 102.881 97.0333
32 16 1 100.952 97.1515 101.832
33 17 1 96.9129 97.9337 100.077
34 17 1 97.4223 102.872 100.362
35 18 1 101.468 98.4233 99.2503
36 18 1 100.377 98.9101 99.5656
37 19 1 102.175 102.647 101.536
38 19 1 102.897 101.847 102.134
39 20 1 101.461 100.17 98.3702
40 20 1 100.99 99.1768 98.6371
41 21 1 99.3787 97.992 98.3036
42 21 1 98.6766 97.5267 99.1136
43 22 1 98.0417 98.6985 97.724
44 22 1 98.4413 97.578 97.8765
45 23 1 98.0064 102.791 98.551
46 23 1 96.8826 97.0767 98.1272
47 24 1 102.511 98.2701 100.869
48 24 1 101.594 97.5468 101.046
49 25 1 99.9286 101.731 99.7488
50 25 1 101.125 101.801 100.081
51 26 1 96.9114 101.97 100.121
52 26 1 102.557 102.996 100.567
53 27 1 102.126 97.2197 97.6988
54 27 1 97.0054 102.77 97.1357
55 28 1 97.8187 97.9558 100.696
56 28 1 98.9179 97.6766 101.08
57 29 1 97.3512 102.051 98.0393
58 29 1 97.118 102.473 99.0933
59 30 1 98.344 102.161 97.6262
60 30 1 98.9179 102.235 102.484
61 31 1 102.058 99.3427 98.8625
62 31 1 101.293 99.3611 99.7881
63 32 1 100.3 100.43 102.62
64 32 1 99.5497 99.7153 97.3191
65 33 1 102.98 102.909 102.128
66 33 1 102.817 98.0835 102.461
67 34 1 100.928 98.7651 97.6552
68 34 1 100.572 98.1587 98.6144
69 35 1 97.6044 98.6457 102.583
70 35 1 102.862 98.9178 97.3475
71 36 1 99.0334 100.349 102.635
72 36 1 98.5042 101.331 102.106
73 37 1 98.6339 102.332 101.427
74 37 1 98.8187 97.3373 102.099
75 38 1 99.6805 97.9121 102.571
76 38 1 98.4671 98.0282 102.803
77 39 1 99.0746 102.527 99.5046
78 39 1 98.9818 101.358 99.4346
79 40 1 101.224 98.3887 100.34
80 40 1 100.775 98.1641 101.458
81 41 1 100.148 102.368 101.682
82 41 1 100.259 96.9947 102.68
83 42 1 99.367 101.627 101.347
84 42 1 99.1856 100.461 101.603
85 43 1 102.696 99.2652 101.118
86 43 1 101.871 99.5603 101.903
87 44 1 101.108 100.134 100.465
88 44 1 102.13 100.038 99.8055
89 45 1 100.56 99.8687 97.7556
90 45 1 101.313 100.031 102.822
91 46 1 99.2181 99.4381 99.2159
92 46 1 99.6724 100.084 98.3587
93 47 1 100.443 102.675 99.7448
94 47 1 99.7149 97.3281 99.0117
95 48 1 97.2111 98.9661 98.4248
96 48 1 102.898 99.8651 97.9016
97 49 1 102.785 99.1352 102.202
98 49 1 97.5716 99.4073 101.6
99 50 1 98.0014 100.613 102.943