ITEM: TIMESTEP
0
ITEM: NUMBER OF ATOMS
200
ITEM: BOX BOUNDS pp pp pp
9.7023319564612407e+01 1.0297668043538759e+02
9.7023319564612407e+01 1.0297668043538759e+02
9.7023319564612407e+01 1.0297668043538759e+02
ITEM: ATOMS id mol type x y z
1 1 1 97.2431 97.9796 101.233
2 1 1 97.7032 99.0412 100.915
3 2 1 100.772 100.58 98.3224
4 2 1 101.579 101.412 98.1356
5 3 1 99.8694 100.251 98.6291
6 3 1 100.065 100.52 97.4958
7 4 1 98.5761 100.891 97.4301
8 4 1 97.7281 101.32 102.599
9 5 1 100.101 100.603 101.714
10 5 1 99.305 101.414 101.431
11 6 1 97.538 99.4326 102.624
12 6 1 102.467 98.8191 102.638
13 7 1 99.4657 97.4466 102.552
14 7 1 98.8313 97.6742 97.5976
15 8 1 102.188 99.6592 99.3146
16 8 1 101.955 100.59 98.6492
17 9 1 101.811 101.404 97.1491
18 9 1 102.952 101.802 97.3588
19 10 1 97.1477 100.3 99.5224
20 10 1 102.056 100.8 99.7057
21 11 1 97.483 102.123 98.4653
22 11 1 98.1695 102.964 98.0272
23 12 1 102.969 98.9812 101.721
24 12 1 98.1481 98.5462 101.751
25 13 1 97.7708 97.5352 97.1755
26 13 1 97.7885 97.3737 101.906
27 14 1 100.554 102.54 101.196
28 14 1 100.181 102.707 100.184
29 15 1 98.4869 101.408 99.3891
30 15 1 98.9317 100.795 98.4099
31 16 1 101.254 97.1648 102.753
32 16 1 100.404 97.9374 102.412
33 17 1 97.3452 98.2215 102.321
34 17 1 98.5375 98.0739 102.598
35 18 1 102.343 97.7247 100.442
36 18 1 101.495 98.3361 100.96
37 19 1 102.372 102.088 98.2574
38 19 1 101.607 102.77 98.9523
39 20 1 100.906 97.4633 100.645
40 20 1 100.802 97.2297 99.4572
41 21 1 98.5834 99.1089 102.517
42 21 1 97.7771 98.5725 97.2779
43 22 1 102.248 98.3279 98.6255
44 22 1 102.427 97.203 98.4434
45 23 1 97.4476 97.2422 98.8718
46 23 1 97.6432 98.4184 99.1775
47 24 1 101.142 97.5549 101.741
48 24 1 101.034 98.7216 101.99
49 25 1 99.9519 101.646 99.7389
50 25 1 100.922 101.138 100.253
51 26 1 97.5142 101.879 99.5841
52 26 1 97.3823 101.895 100.788
53 27 1 100.15 97.0285 97.2764
54 27 1 101.146 102.773 97.9216
55 28 1 98.2486 98.0241 100.803
56 28 1 98.3093 98.9645 100.074
57 29 1 98.9384 99.8618 98.9517
58 29 1 97.9967 100.638 98.9731
59 30 1 99.9304 101.919 102.877
60 30 1 99.1034 102.541 97.5397
61 31 1 97.3341 98.0565 100.141
62 31 1 102.512 97.5463 99.4375
63 32 1 98.4613 101.842 98.1564
64 32 1 99.49 101.411 97.7212
65 33 1 100.661 98.8253 97.0924
66 33 1 99.5687 98.6145 102.506
67 34 1 99.9069 99.2458 97.7044
68 34 1 99.8322 98.0892 97.4432
69 35 1 102.915 102.787 101.462
70 35 1 101.806 102.97 101.047
71 36 1 98.0531 102.206 101.966
72 36 1 98.8409 101.779 102.739
73 37 1 99.402 102.354 101.977
74 37 1 99.8271 97.3192 101.353
75 38 1 98.4726 100.971 101.963
76 38 1 98.3449 101.773 101.09
77 39 1 99.2521 101.853 98.8706
78 39 1 99.2087 97.0482 98.5187
79 40 1 101.924 99.1368 101.679
80 40 1 100.967 99.3061 101.048
81 41 1 101.041 102.062 102.915
82 41 1 100.407 101.732 101.942
83 42 1 99.3923 102.339 100.861
84 42 1 98.7454 97.1152 101.548
85 43 1 102.356 98.6047 99.6035
86 43 1 101.326 98.8263 99.0385
87 44 1 102.449 99.8742 100.319
88 44 1 101.573 99.0512 100.174
89 45 1 100.712 99.9321 102.851
90 45 1 101.734 100.41 102.559
91 46 1 100.415 98.2489 99.2552
92 46 1 100.602 98.5324 100.422
93 47 1 100.207 98.3729 101.402
94 47 1 99.8952 97.7842 100.412
95 48 1 97.0337 99.1352 98.7004
96 48 1 102.493 98.7125 97.7005
97 49 1 102.514 100.826 101.571
98 49 1 97.5111 100.408 102.187
99 50 1 102.533 100.922 97.797
100 50 1 97.6775 101.143 98.0962
101 51 1 97.303 99.4123 97.704
102 51 1 98.1336 98.8049 98.2681
103 52 1 102.931 100.184 98.4457
104 52 1 102.478 99.9742 97.2829
105 53 1 99.6762 98.6993 99.7654
106 53 1 98.654 98.0019 99.7579
107 54 1 101.322 102.012 100.773
108 54 1 100.177 101.613 100.79
109 55 1 102.331 102.017 102.445
110 55 1 102.124 97.1349 102.163
111 56 1 98.4985 100.152 102.658
112 56 1 99.169 100.187 101.701
113 57 1 101.628 99.3756 97.1281
114 57 1 101.542 98.2164 102.808
115 58 1 97.1785 102.739 102.548
116 58 1 97.151 102.802 97.7445
117 59 1 100.837 97.8178 97.5289
118 59 1 101.316 97.8284 98.6356
119 60 1 98.7739 99.6511 100.723
120 60 1 98.1416 99.6832 101.722
121 61 1 100.937 101.077 101.375
122 61 1 101.865 101.02 100.698
123 62 1 101.838 102.837 99.9734
124 62 1 100.961 102.102 99.7373
125 63 1 102.554 99.8477 102.127
126 63 1 101.862 100.075 101.146
127 64 1 100.892 99.5897 97.961
128 64 1 100.494 98.5075 98.2181
129 65 1 98.6109 100.389 99.8494
130 65 1 98.5254 100.634 101.006
131 66 1 99.8973 99.3585 100.769
132 66 1 99.092 99.1367 101.631
133 67 1 101.214 99.9258 99.0029
134 67 1 100.345 100.425 99.6723
135 68 1 98.3548 102.169 100.151
136 68 1 97.9405 97.2781 99.7988
137 69 1 97.8835 101.087 100.201
138 69 1 97.5966 100.995 101.337
139 70 1 101.482 98.6557 97.9197
140 70 1 101.857 97.6353 97.7032
141 71 1 101.487 100.47 97.594
142 71 1 100.616 101.384 97.6644
143 72 1 100.902 102.066 98.6897
144 72 1 101.862 101.717 99.1888
145 73 1 98.8371 98.8487 99.0798
146 73 1 98.4375 97.8003 98.7338
147 74 1 97.7497 100.015 100.378
148 74 1 102.875 100.863 100.478
149 75 1 101.038 99.9881 101.856
150 75 1 100.588 100.264 100.75
151 76 1 99.4071 100.842 99.3602
152 76 1 99.4875 99.7821 99.8716
153 77 1 99.4733 98.2482 98.4818
154 77 1 98.9307 98.7528 97.5525
155 78 1 102.673 102.414 99.2135
156 78 1 102.945 102.82 100.288
157 79 1 100.083 101.35 98.6181
158 79 1 100.074 102.508 99.0874
159 80 1 102.264 101.942 101.216
160 80 1 101.642 101.348 102.036
161 81 2 99.4696 100.96 102.554
162 82 2 98.3886 102.556 99.0281
163 83 2 102.346 101.791 100.119
164 84 2 97.9478 102.301 97.1954
165 85 2 102.588 98.8359 100.725
166 86 2 97.3358 97.9205 98.1079
167 87 2 102.181 98.1115 101.822
168 88 2 100.353 102.742 102.272
169 89 2 99.2076 98.5602 100.719
170 90 2 99.194 102.576 99.6666
171 91 2 97.1983 99.1637 99.869
172 92 2 98.9512 97.2523 100.436
173 93 2 98.5039 102.968 102.61
174 94 2 101.374 100.083 100.07
175 95 2 99.5416 99.7758 102.677
176 96 2 101.464 97.9774 99.7686
177 97 2 102.678 97.702 97.0583
178 98 2 100.762 100.984 102.581
179 99 2 98.0907 100.006 98.1081
180 100 2 100.239 97.4204 98.4103
181 101 2 102.114 102.688 97.2572
182 102 2 97.9573 99.6219 99.2466
183 103 2 101.029 101.045 99.2162
184 104 2 102.654 100.982 102.631
185 105 2 102.87 101.204 98.9774
186 106 2 99.5422 97.5819 99.3374
187 107 2 99.069 101.409 100.33
188 108 2 99.187 98.0934 101.636
189 109 2 97.0877 99.8754 101.192
190 110 2 102.064 99.6016 98.2084
191 111 2 97.5495 100.477 97.314
192 112 2 101.374 102.351 101.859
193 113 2 97.9506 102.875 100.803
194 114 2 99.8759 99.2564 98.8985
195 115 2 99.9713 102.338 98.0608
196 116 2 99.1276 99.9539 97.7272
197 117 2 99.5729 100.488 100.629
198 118 2 97.1475 101.78 101.816
199 119 2 100.102 99.4304 101.822
200 120 2 100.574 99.4052 99.8123
ITEM: TIMESTEP
1000
ITEM: NUMBER OF ATOMS
200
ITEM: BOX BOUNDS pp pp pp
9.6993403428880583e+01 1.0300659657111942e+02
9.7023319564612407e+01 1.0297668043538759e+02
9.7023319564612407e+01 1.0297668043538759e+02
ITEM: ATOMS id mol type x y z
1 1 1 97.2817 98.0587 101.315
2 1 1 97.6986 99.0948 100.913
3 2 1 100.743 100.605 98.3212
4 2 1 101.596 101.375 98.1025
5 3 1 99.7772 100.259 98.5701
6 3 1 100.081 100.483 97.4532
7 4 1 98.4712 100.934 97.4288
8 4 1 97.6597 101.364 102.644
9 5 1 100.126 100.531 101.919
10 5 1 99.3479 101.29 101.438
11 6 1 97.5413 99.4395 102.669
12 6 1 102.45 98.9639 102.664
13 7 1 99.492 97.4683 102.548
14 7 1 98.8523 97.6963 97.6011
15 8 1 102.202 99.6311 99.3304
16 8 1 102.035 100.581 98.6696
17 9 1 101.826 101.35 97.0867
18 9 1 102.956 101.799 97.3416
19 10 1 97.1495 100.311 99.5385
20 10 1 102.083 100.77 99.6957
21 11 1 97.4483 102.15 98.4745
22 11 1 98.0884 103.051 98.0475
23 12 1 103.06 99.0226 101.744
24 12 1 98.127 98.6126 101.769
25 13 1 97.6919 97.5111 97.1853
26 13 1 97.7594 97.3711 101.967
27 14 1 100.582 102.518 101.157
28 14 1 100.115 102.76 100.128
29 15 1 98.4259 101.407 99.3371
30 15 1 98.8628 100.835 98.4098
31 16 1 101.23 97.1312 102.77
32 16 1 100.431 97.981 102.448
33 17 1 97.3122 98.2766 102.421
34 17 1 98.5177 98.0641 102.579
35 18 1 102.46 97.6909 100.695
36 18 1 101.539 98.3723 101.02
37 19 1 102.384 102.11 98.2341
38 19 1 101.559 102.702 98.9779
39 20 1 100.904 97.519 100.686
40 20 1 100.779 97.2648 99.4895
41 21 1 98.572 99.1214 102.581
42 21 1 97.9026 98.5436 97.3565
43 22 1 102.253 98.3356 98.6987
44 22 1 102.354 97.2076 98.5538
45 23 1 97.3423 97.232 98.8862
46 23 1 97.5816 98.3233 99.2293
47 24 1 101.134 97.554 101.741
48 24 1 101.092 98.7356 102.043
49 25 1 99.9946 101.636 99.6657
50 25 1 100.943 101.166 100.219
51 26 1 97.4763 101.907 99.5627
52 26 1 97.4221 101.946 100.748
53 27 1 100.103 97.0561 97.3083
54 27 1 101.101 102.756 97.9133
55 28 1 98.2713 98.0904 100.838
56 28 1 98.3006 99.0469 100.075
57 29 1 98.8777 99.8534 98.8983
58 29 1 97.9146 100.612 98.8657
59 30 1 99.9381 101.926 102.879
60 30 1 99.1064 102.529 97.5599
61 31 1 97.3814 98.1683 100.267
62 31 1 102.622 97.5673 99.6006
63 32 1 98.4469 101.84 98.1271
64 32 1 99.4426 101.399 97.7097
65 33 1 100.625 98.7967 97.0664
66 33 1 99.5532 98.6487 102.528
67 34 1 99.8903 99.3402 97.6628
68 34 1 99.8339 98.097 97.4624
69 35 1 102.951 102.842 101.394
70 35 1 101.776 102.874 101.09
71 36 1 98.095 102.228 102.044
72 36 1 98.8306 101.768 102.809
73 37 1 99.3438 102.311 102.007
74 37 1 99.7939 97.2876 101.368
75 38 1 98.4358 101.015 101.974
76 38 1 98.4727 101.906 101.133
77 39 1 99.2196 101.83 98.8223
78 39 1 99.1861 97.0246 98.4774
79 40 1 101.981 99.1342 101.728
80 40 1 101.033 99.3333 101.048
81 41 1 101.033 102.037 102.824
82 41 1 100.273 101.695 101.937
83 42 1 99.3779 102.364 100.867
84 42 1 98.7273 97.1239 101.584
85 43 1 102.432 98.5989 99.6602
86 43 1 101.371 98.8704 99.0739
87 44 1 102.497 99.8881 100.317
88 44 1 101.64 99.0753 100.172
89 45 1 100.713 99.8617 102.835
90 45 1 101.777 100.286 102.537
91 46 1 100.464 98.2601 99.2781
92 46 1 100.646 98.5776 100.411
93 47 1 100.228 98.4077 101.387
94 47 1 99.8845 97.8189 100.357
95 48 1 96.9424 99.1086 98.7466
96 48 1 102.527 98.6244 97.7225
97 49 1 102.612 100.853 101.578
98 49 1 97.5258 100.397 102.174
99 50 1 102.518 100.905 97.7954
100 50 1 97.6296 101.223 98.0012
101 51 1 97.2748 99.3759 97.7329
102 51 1 98.0978 98.8049 98.3632
103 52 1 103 100.177 98.4086
104 52 1 102.466 99.9826 97.3227
105 53 1 99.666 98.6994 99.7777
106 53 1 98.6369 98.0762 99.8206
107 54 1 101.342 101.958 100.766
108 54 1 100.164 101.631 100.763
109 55 1 102.391 101.937 102.375
110 55 1 102.12 97.0775 102.088
111 56 1 98.4847 100.157 102.626
112 56 1 99.1247 100.234 101.639
113 57 1 101.552 99.343 97.1582
114 57 1 101.58 98.1647 102.801
115 58 1 97.1236 102.657 102.537
116 58 1 97.0034 102.854 97.7886
117 59 1 100.842 97.7916 97.554
118 59 1 101.337 97.8135 98.6222
119 60 1 98.8653 99.7155 100.707
120 60 1 98.1449 99.7152 101.671
121 61 1 100.877 101.043 101.338
122 61 1 101.875 100.982 100.709
123 62 1 101.832 102.838 100.014
124 62 1 100.959 102.113 99.7205
125 63 1 102.627 99.8836 102.161
126 63 1 101.956 100.065 101.21
127 64 1 100.88 99.5498 97.9998
128 64 1 100.456 98.4895 98.2211
129 65 1 98.5848 100.362 99.786
130 65 1 98.5489 100.694 100.911
131 66 1 99.9014 99.3418 100.771
132 66 1 99.0786 99.1443 101.625
133 67 1 101.216 99.9334 98.961
134 67 1 100.337 100.413 99.6028
135 68 1 98.3058 102.222 100.148
136 68 1 97.9111 97.3137 99.8007
137 69 1 97.9284 101.137 100.182
138 69 1 97.5955 100.986 101.302
139 70 1 101.457 98.6006 97.881
140 70 1 101.897 97.556 97.6799
141 71 1 101.481 100.379 97.6164
142 71 1 100.683 101.383 97.619
143 72 1 100.915 101.933 98.6059
144 72 1 101.854 101.735 99.2498
145 73 1 98.8655 98.8483 99.1054
146 73 1 98.4224 97.7696 98.8097
147 74 1 97.8008 100 100.34
148 74 1 102.978 100.889 100.439
149 75 1 101.053 100.076 101.803
150 75 1 100.554 100.226 100.706
151 76 1 99.3704 100.872 99.3409
152 76 1 99.4641 99.7625 99.777
153 77 1 99.4477 98.1623 98.4645
154 77 1 98.9314 98.8329 97.5702
155 78 1 102.642 102.417 99.2483
156 78 1 103.019 102.821 100.264
157 79 1 100.071 101.334 98.6269
158 79 1 100.098 102.498 99.0233
159 80 1 102.334 101.921 101.247
160 80 1 101.705 101.212 102
161 81 2 99.4043 100.886 102.602
162 82 2 98.3058 102.552 98.9665
163 83 2 102.392 101.783 100.197
164 84 2 97.8942 102.298 97.2837
165 85 2 102.637 98.8636 100.786
166 86 2 97.2439 97.9485 98.1441
167 87 2 102.26 98.113 101.892
168 88 2 100.316 102.765 102.271
169 89 2 99.2034 98.5606 100.695
170 90 2 99.1505 102.495 99.6164
171 91 2 97.2012 99.2152 99.8561
172 92 2 98.9607 97.2616 100.412
173 93 2 98.5372 102.946 102.623
174 94 2 101.371 100.053 100.069
175 95 2 99.515 99.7808 102.585
176 96 2 101.558 98.0103 99.8505
177 97 2 102.645 97.6746 96.9666
178 98 2 100.821 100.969 102.567
179 99 2 98.112 99.9664 98.0498
180 100 2 100.259 97.4214 98.4335
181 101 2 102.067 102.574 97.2039
182 102 2 97.9287 99.598 99.1785
183 103 2 101.071 101.052 99.1917
184 104 2 102.705 100.889 102.674
185 105 2 102.885 101.214 98.9136
186 106 2 99.4669 97.5673 99.3637
187 107 2 99.0653 101.499 100.259
188 108 2 99.186 98.0983 101.623
189 109 2 97.0525 99.9523 101.188
190 110 2 102.048 99.5345 98.2457
191 111 2 97.4818 100.432 97.3063
192 112 2 101.377 102.292 101.888
193 113 2 97.9832 102.999 100.861
194 114 2 99.9088 99.2311 98.85
195 115 2 100.022 102.266 98.0458
196 116 2 99.0673 100.049 97.6115
197 117 2 99.5893 100.601 100.453
198 118 2 97.1907 101.814 101.816
199 119 2 100.147 99.3717 101.829
200 120 2 100.559 99.4096 99.7679
ITEM: TIMESTEP
2000
ITEM: NUMBER OF ATOMS
200
ITEM: BOX BOUNDS pp pp pp
9.6963186630986158e+01 1.0303681336901384e+02
9.7023319564612407e+01 1.0297668043538759e+02
9.7023319564612407e+01 1.0297668043538759e+02
ITEM: ATOMS id mol type x y z
1 1 1 97.208 98.0431 101.258
2 1 1 97.6516 99.1107 100.902
3 2 1 100.839 100.602 98.3347
4 2 1 101.686 101.4 98.1003
5 3 1 99.8197 100.292 98.5327
6 3 1 100.103 100.478 97.3835
7 4 1 98.5047 100.953 97.4612
8 4 1 97.6488 101.314 102.702
9 5 1 100.117 100.565 101.883
10 5 1 99.3283 101.368 101.494
11 6 1 97.4492 99.3978 102.623
12 6 1 102.42 98.8787 102.622
13 7 1 99.4411 97.5591 102.519
14 7 1 98.8692 97.7258 97.6498
15 8 1 102.32 99.5652 99.2323
16 8 1 102.019 100.532 98.6187
17 9 1 101.848 101.353 97.1032
18 9 1 102.971 101.766 97.3305
19 10 1 97.1509 100.314 99.478
20 10 1 102.185 100.781 99.6909
21 11 1 97.4441 102.132 98.4781
22 11 1 98.0651 103.086 98.1097
23 12 1 103.046 99.0137 101.748
24 12 1 98.063 98.5901 101.733
25 13 1 97.7009 97.5188 97.1988
26 13 1 97.7217 97.425 101.974
27 14 1 100.474 102.51 101.234
28 14 1 100.149 102.738 100.139
29 15 1 98.4554 101.417 99.3397
30 15 1 98.8781 100.843 98.4152
31 16 1 101.22 97.1073 102.728
32 16 1 100.444 97.9465 102.44
33 17 1 97.3025 98.3106 102.492
34 17 1 98.4841 98.0631 102.565
35 18 1 102.395 97.7121 100.543
36 18 1 101.548 98.3441 101.027
37 19 1 102.434 102.082 98.2768
38 19 1 101.581 102.681 98.8963
39 20 1 100.948 97.422 100.614
40 20 1 100.823 97.2676 99.455
41 21 1 98.5213 99.133 102.518
42 21 1 97.8719 98.5892 97.4076
43 22 1 102.282 98.3201 98.6295
44 22 1 102.433 97.2256 98.4988
45 23 1 97.3659 97.224 98.9052
46 23 1 97.636 98.3572 99.2744
47 24 1 101.191 97.5329 101.711
48 24 1 101.056 98.7093 102.02
49 25 1 100.015 101.708 99.7069
50 25 1 100.899 101.138 100.234
51 26 1 97.4965 101.836 99.5332
52 26 1 97.3769 101.915 100.755
53 27 1 99.9288 97.0846 97.4035
54 27 1 100.967 102.647 97.8126
55 28 1 98.2057 98.0972 100.761
56 28 1 98.2491 99.009 100.007
57 29 1 98.9092 99.9566 98.9503
58 29 1 97.9289 100.664 98.8663
59 30 1 99.8834 101.934 102.924
60 30 1 99.046 102.454 97.6716
61 31 1 97.2827 98.0987 100.208
62 31 1 102.603 97.5902 99.4426
63 32 1 98.3906 101.793 98.1749
64 32 1 99.4766 101.367 97.8049
65 33 1 100.628 98.778 97.1629
66 33 1 99.571 98.6871 102.505
67 34 1 99.8916 99.3469 97.6898
68 34 1 99.8223 98.1436 97.505
69 35 1 102.971 102.769 101.461
70 35 1 101.844 102.854 101.066
71 36 1 97.9603 102.286 102.069
72 36 1 98.761 101.824 102.829
73 37 1 99.3267 102.322 102.01
74 37 1 99.7844 97.3545 101.446
75 38 1 98.3797 101.129 101.974
76 38 1 98.4411 101.956 101.127
77 39 1 99.2117 101.865 98.8329
78 39 1 99.2336 97.072 98.5303
79 40 1 101.952 99.1626 101.703
80 40 1 101.02 99.3189 100.999
81 41 1 101.06 102.046 102.865
82 41 1 100.307 101.721 101.95
83 42 1 99.4211 102.413 100.838
84 42 1 98.6849 97.1147 101.601
85 43 1 102.442 98.597 99.6518
86 43 1 101.394 98.8115 99.0732
87 44 1 102.526 99.8646 100.219
88 44 1 101.586 99.0477 100.158
89 45 1 100.683 99.7682 102.738
90 45 1 101.765 100.246 102.578
91 46 1 100.514 98.2656 99.2491
92 46 1 100.652 98.4877 100.432
93 47 1 100.133 98.3947 101.438
94 47 1 99.8898 97.8107 100.456
95 48 1 96.9824 99.0044 98.7426
96 48 1 102.607 98.6103 97.6721
97 49 1 102.627 100.809 101.47
98 49 1 97.4349 100.411 102.178
99 50 1 102.544 100.92 97.781
100 50 1 97.5796 101.194 97.9871
101 51 1 97.265 99.3452 97.8195
102 51 1 98.1373 98.7907 98.4166
103 52 1 103.095 100.229 98.3597
104 52 1 102.51 99.8715 97.3077
105 53 1 99.7368 98.6952 99.8154
106 53 1 98.7308 98.0623 99.769
107 54 1 101.344 101.907 100.811
108 54 1 100.148 101.645 100.758
109 55 1 102.378 101.877 102.344
110 55 1 102.107 97.0454 102.095
111 56 1 98.4255 100.266 102.598
112 56 1 99.1307 100.247 101.678
113 57 1 101.581 99.319 97.0838
114 57 1 101.59 98.1543 102.793
115 58 1 96.9901 102.635 102.561
116 58 1 97.0186 102.87 97.7574
117 59 1 100.777 97.753 97.5525
118 59 1 101.369 97.7612 98.6124
119 60 1 98.8498 99.7359 100.698
120 60 1 98.0677 99.7958 101.615
121 61 1 100.876 101.066 101.353
122 61 1 101.875 101 100.687
123 62 1 101.878 102.91 99.9408
124 62 1 101.033 102.121 99.7663
125 63 1 102.597 99.8661 102.124
126 63 1 101.949 100.028 101.093
127 64 1 100.983 99.5903 97.9546
128 64 1 100.482 98.5518 98.2237
129 65 1 98.5473 100.412 99.8325
130 65 1 98.5706 100.762 100.937
131 66 1 99.9292 99.3081 100.767
132 66 1 99.0998 99.1497 101.61
133 67 1 101.283 99.8841 99.0116
134 67 1 100.355 100.377 99.59
135 68 1 98.244 102.272 100.183
136 68 1 97.8961 97.3717 99.7804
137 69 1 97.9574 101.176 100.209
138 69 1 97.6096 100.882 101.268
139 70 1 101.496 98.567 97.8654
140 70 1 101.848 97.4704 97.6327
141 71 1 101.588 100.437 97.6087
142 71 1 100.698 101.359 97.6285
143 72 1 100.948 101.916 98.6418
144 72 1 101.937 101.717 99.2273
145 73 1 98.9014 98.9199 99.1827
146 73 1 98.4951 97.8334 98.7475
147 74 1 97.7189 100.007 100.343
148 74 1 102.976 100.924 100.448
149 75 1 101.101 100.069 101.766
150 75 1 100.503 100.214 100.752
151 76 1 99.4387 100.852 99.3874
152 76 1 99.4711 99.7897 99.8388
153 77 1 99.4629 98.3583 98.5304
154 77 1 98.9145 98.8856 97.5796
155 78 1 102.73 102.422 99.229
156 78 1 103.039 102.811 100.313
157 79 1 100.096 101.333 98.7122
158 79 1 100.125 102.502 99.0698
159 80 1 102.325 101.827 101.232
160 80 1 101.698 101.126 101.977
161 81 2 99.3737 100.904 102.625
162 82 2 98.3036 102.521 98.9911
163 83 2 102.372 101.853 100.143
164 84 2 97.8798 102.322 97.3099
165 85 2 102.63 98.8413 100.763
166 86 2 97.2553 97.988 98.1945
167 87 2 102.241 98.1122 101.922
168 88 2 100.275 102.755 102.367
169 89 2 99.1496 98.5853 100.701
170 90 2 99.1532 102.534 99.6457
171 91 2 97.1815 99.2032 99.8229
172 92 2 98.8993 97.2969 100.452
173 93 2 98.5648 102.945 102.675
174 94 2 101.386 100.109 100.072
175 95 2 99.4929 99.8249 102.619
176 96 2 101.591 98.0044 99.8459
177 97 2 102.693 97.6682 96.9571
178 98 2 100.818 100.928 102.572
179 99 2 98.1474 99.9335 98.0358
180 100 2 100.232 97.4887 98.4458
181 101 2 102.008 102.458 97.2281
182 102 2 97.9107 99.5873 99.1512
183 103 2 101.152 101.02 99.2444
184 104 2 102.654 100.824 102.636
185 105 2 102.929 101.242 98.8615
186 106 2 99.5923 97.5999 99.3305
187 107 2 99.0671 101.575 100.222
188 108 2 99.0765 98.0971 101.562
189 109 2 96.9918 99.917 101.166
190 110 2 102.122 99.4947 98.1966
191 111 2 97.4671 100.39 97.3057
192 112 2 101.353 102.299 101.851
193 113 2 97.9061 103.015 100.871
194 114 2 100.001 99.3281 98.9356
195 115 2 100.018 102.247 98.0845
196 116 2 99.0769 100.066 97.587
197 117 2 99.5758 100.681 100.521
198 118 2 97.1925 101.657 101.802
199 119 2 100.144 99.433 101.809
200 120 2 100.616 99.3589 99.8615
ITEM: TIMESTEP
3000
ITEM: NUMBER OF ATOMS
200
ITEM: BOX BOUNDS pp pp pp
9.6932666149224133e+01 1.0306733385077587e+02
9.7023319564612407e+01 1.0297668043538759e+02
9.7023319564612407e+01 1.0297668043538759e+02
ITEM: ATOMS id mol type x y z
1 1 1 97.1754 98.0112 101.273
2 1 1 97.5989 99.0714 100.868
3 2 1 100.79 100.499 98.301
4 2 1 101.678 101.297 98.1893
5 3 1 99.7848 100.234 98.5652
6 3 1 100.053 100.564 97.4462
7 4 1 98.4418 100.981 97.4395
8 4 1 97.5808 101.379 102.627
9 5 1 100.072 100.619 101.888
10 5 1 99.309 101.402 101.527
11 6 1 97.5163 99.5184 102.64
12 6 1 102.569 98.9966 102.669
13 7 1 99.5012 97.413 102.529
14 7 1 98.8565 97.7096 97.5713
15 8 1 102.257 99.5069 99.3352
16 8 1 102.065 100.491 98.6871
17 9 1 101.85 101.419 97.1468
18 9 1 103.007 101.808 97.3824
19 10 1 97.0739 100.337 99.4926
20 10 1 102.129 100.741 99.7531
21 11 1 97.402 102.204 98.493
22 11 1 98.0658 103.045 98.0723
23 12 1 103.111 99.0285 101.747
24 12 1 98.0751 98.6253 101.749
25 13 1 97.7219 97.5755 97.1995
26 13 1 97.8168 97.4648 101.971
27 14 1 100.613 102.5 101.166
28 14 1 100.183 102.73 100.147
29 15 1 98.4391 101.45 99.3645
30 15 1 98.8717 100.89 98.4167
31 16 1 101.277 97.1394 102.779
32 16 1 100.441 97.9692 102.499
33 17 1 97.314 98.3032 102.411
34 17 1 98.5314 98.1157 102.615
35 18 1 102.415 97.6761 100.565
36 18 1 101.541 98.3102 101.029
37 19 1 102.395 102.104 98.2331
38 19 1 101.637 102.689 98.9694
39 20 1 100.874 97.4755 100.727
40 20 1 100.836 97.2432 99.4964
41 21 1 98.6011 99.1548 102.539
42 21 1 97.8526 98.636 97.3436
43 22 1 102.303 98.3208 98.6431
44 22 1 102.456 97.1832 98.4647
45 23 1 97.3171 97.2838 98.9503
46 23 1 97.7049 98.3815 99.233
47 24 1 101.222 97.5883 101.814
48 24 1 100.998 98.7646 101.989
49 25 1 99.8899 101.64 99.7401
50 25 1 100.842 101.079 100.19
51 26 1 97.4644 101.889 99.5068
52 26 1 97.3299 101.88 100.709
53 27 1 100.204 97.0773 97.3107
54 27 1 101.21 102.755 97.9191
55 28 1 98.1281 98.102 100.748
56 28 1 98.218 98.9956 99.9941
57 29 1 98.8263 99.9495 98.8599
58 29 1 97.8603 100.715 98.9093
59 30 1 99.9942 101.83 102.941
60 30 1 99.1844 102.553 97.493
61 31 1 97.223 98.0359 100.173
62 31 1 102.538 97.4673 99.4728
63 32 1 98.4367 101.912 98.2083
64 32 1 99.4075 101.465 97.742
65 33 1 100.711 98.7825 97.1555
66 33 1 99.58 98.6378 102.564
67 34 1 99.9369 99.2928 97.6705
68 34 1 99.8674 98.0996 97.5365
69 35 1 102.937 102.923 101.397
70 35 1 101.789 102.875 101.111
71 36 1 97.9444 102.284 102.056
72 36 1 98.7175 101.816 102.828
73 37 1 99.4298 102.304 102.164
74 37 1 99.7725 97.1831 101.331
75 38 1 98.4006 101.035 101.988
76 38 1 98.367 101.85 101.134
77 39 1 99.2449 101.828 98.8506
78 39 1 99.2268 97.0083 98.463
79 40 1 101.967 99.1642 101.772
80 40 1 101.022 99.3221 101.025
81 41 1 101.074 102.046 102.849
82 41 1 100.314 101.762 101.89
83 42 1 99.389 102.305 100.779
84 42 1 98.7165 96.8656 101.569
85 43 1 102.434 98.5214 99.6989
86 43 1 101.432 98.7941 99.0638
87 44 1 102.516 99.8417 100.282
88 44 1 101.626 99.0126 100.19
89 45 1 100.736 99.8564 102.877
90 45 1 101.785 100.34 102.533
91 46 1 100.527 98.2467 99.2442
92 46 1 100.605 98.4773 100.416
93 47 1 100.101 98.3656 101.415
94 47 1 99.824 97.7645 100.431
95 48 1 96.9706 99.0719 98.7085
96 48 1 102.617 98.6318 97.7058
97 49 1 102.653 100.854 101.522
98 49 1 97.5062 100.464 102.138
99 50 1 102.557 100.907 97.8
100 50 1 97.5381 101.213 98.025
101 51 1 97.2161 99.4123 97.7305
102 51 1 98.146 98.9598 98.343
103 52 1 103.037 100.176 98.4265
104 52 1 102.561 99.9496 97.292
105 53 1 99.7187 98.6509 99.7668
106 53 1 98.6658 98.0507 99.7173
107 54 1 101.349 101.907 100.687
108 54 1 100.155 101.557 100.788
109 55 1 102.394 101.943 102.382
110 55 1 102.146 97.0885 102.113
111 56 1 98.4335 100.176 102.666
112 56 1 99.1211 100.205 101.707
113 57 1 101.673 99.3949 97.1146
114 57 1 101.635 98.2326 102.762
115 58 1 97.0158 102.722 102.456
116 58 1 96.9932 102.929 97.6871
117 59 1 100.901 97.7953 97.5444
118 59 1 101.392 97.7449 98.6579
119 60 1 98.7553 99.6514 100.682
120 60 1 98.0463 99.7108 101.609
121 61 1 100.899 101.059 101.356
122 61 1 101.885 101.011 100.75
123 62 1 101.828 102.79 100.059
124 62 1 100.964 102.086 99.6788
125 63 1 102.693 99.9309 102.167
126 63 1 101.973 100.033 101.172
127 64 1 100.983 99.5264 97.9716
128 64 1 100.567 98.4788 98.2648
129 65 1 98.594 100.333 99.8607
130 65 1 98.4556 100.639 100.992
131 66 1 99.8466 99.3443 100.728
132 66 1 99.1029 99.0167 101.608
133 67 1 101.247 99.8344 99.0085
134 67 1 100.298 100.28 99.5794
135 68 1 98.2864 102.182 100.161
136 68 1 97.9049 97.2963 99.7857
137 69 1 97.8108 101.094 100.156
138 69 1 97.5568 100.991 101.262
139 70 1 101.54 98.6487 97.8882
140 70 1 101.962 97.6384 97.6233
141 71 1 101.535 100.416 97.5811
142 71 1 100.726 101.354 97.6552
143 72 1 100.965 101.967 98.5915
144 72 1 101.898 101.634 99.2294
145 73 1 98.8656 98.9114 99.1163
146 73 1 98.5268 97.8692 98.6555
147 74 1 97.6758 100.023 100.361
148 74 1 102.936 100.876 100.471
149 75 1 101.029 100.074 101.831
150 75 1 100.547 100.232 100.719
151 76 1 99.3575 100.828 99.3463
152 76 1 99.4391 99.6713 99.7722
153 77 1 99.5795 98.3176 98.5187
154 77 1 98.9492 98.8289 97.6107
155 78 1 102.685 102.374 99.2167
156 78 1 103.065 102.847 100.254
157 79 1 100.129 101.306 98.6359
158 79 1 100.11 102.457 99.1151
159 80 1 102.311 101.911 101.214
160 80 1 101.727 101.25 102.002
161 81 2 99.3746 100.956 102.638
162 82 2 98.3103 102.591 99.0283
163 83 2 102.433 101.803 100.145
164 84 2 97.8274 102.341 97.2944
165 85 2 102.618 98.8164 100.816
166 86 2 97.2467 98.0206 98.1592
167 87 2 102.322 98.139 101.876
168 88 2 100.402 102.786 102.255
169 89 2 99.1367 98.5274 100.681
170 90 2 99.1637 102.562 99.6224
171 91 2 97.1594 99.1701 99.8174
172 92 2 98.8758 97.2677 100.495
173 93 2 98.5172 103.002 102.591
174 94 2 101.403 100.079 100.1
175 95 2 99.5452 99.8624 102.634
176 96 2 101.508 97.9834 99.841
177 97 2 102.707 97.7524 96.8979
178 98 2 100.788 101.007 102.579
179 99 2 98.0098 100.106 98.0232
180 100 2 100.261 97.4395 98.4403
181 101 2 102.141 102.597 97.1895
182 102 2 97.8982 99.6256 99.2183
183 103 2 101.107 100.977 99.1881
184 104 2 102.721 100.919 102.608
185 105 2 102.91 101.242 98.8552
186 106 2 99.5543 97.5796 99.2769
187 107 2 99.0174 101.392 100.346
188 108 2 98.9999 97.905 101.558
189 109 2 96.9798 99.9546 101.176
190 110 2 102.152 99.5434 98.2119
191 111 2 97.3873 100.521 97.2486
192 112 2 101.376 102.288 101.87
193 113 2 97.8589 102.929 100.899
194 114 2 100.161 99.3124 98.9103
195 115 2 100.025 102.281 98.0667
196 116 2 99.0138 100.042 97.6799
197 117 2 99.5407 100.531 100.627
198 118 2 97.0831 101.817 101.753
199 119 2 100.081 99.4649 101.808
200 120 2 100.607 99.3149 99.8635
ITEM: TIMESTEP
4000
ITEM: NUMBER OF ATOMS
200
ITEM: BOX BOUNDS pp pp pp
9.6901838931520899e+01 1.0309816106847910e+02
9.7023319564612407e+01 1.0297668043538759e+02
9.7023319564612407e+01 1.0297668043538759e+02
ITEM: ATOMS id mol type x y z
1 1 1 97.1359 97.9897 101.31
2 1 1 97.5892 99.0272 100.909
3 2 1 100.768 100.521 98.3156
4 2 1 101.684 101.346 98.2139
5 3 1 99.7754 100.296 98.5794
6 3 1 100.023 100.517 97.4444
7 4 1 98.429 100.956 97.4312
8 4 1 97.5782 101.372 102.653
9 5 1 100.088 100.684 101.831
10 5 1 99.2395 101.375 101.459
11 6 1 97.515 99.3814 102.563
12 6 1 102.601 98.9208 102.714
13 7 1 99.4644 97.4152 102.512
14 7 1 98.9814 97.6337 97.6223
15 8 1 102.3 99.5393 99.2754
16 8 1 102.127 100.517 98.6976
17 9 1 101.888 101.34 97.1305
18 9 1 103.002 101.788 97.2938
19 10 1 97.0594 100.247 99.4432
20 10 1 102.263 100.792 99.7066
21 11 1 97.3099 102.188 98.3927
22 11 1 98.0372 103.069 98.0294
23 12 1 103.111 99.0367 101.741
24 12 1 98.0499 98.6875 101.815
25 13 1 97.621 97.4979 97.1536
26 13 1 97.8136 97.465 101.948
27 14 1 100.593 102.553 101.245
28 14 1 100.207 102.738 100.181
29 15 1 98.4298 101.507 99.3516
30 15 1 98.8285 100.856 98.4434
31 16 1 101.3 97.1242 102.752
32 16 1 100.452 97.9293 102.508
33 17 1 97.2604 98.2979 102.431
34 17 1 98.4575 98.0359 102.623
35 18 1 102.408 97.7111 100.542
36 18 1 101.598 98.3468 101.035
37 19 1 102.419 102.106 98.2145
38 19 1 101.635 102.798 98.9077
39 20 1 100.88 97.4783 100.699
40 20 1 100.805 97.2538 99.4887
41 21 1 98.6076 99.1084 102.635
42 21 1 97.8532 98.5325 97.3773
43 22 1 102.328 98.3659 98.7319
44 22 1 102.535 97.2169 98.5086
45 23 1 97.3148 97.1973 98.9505
46 23 1 97.666 98.316 99.2653
47 24 1 101.229 97.6402 101.795
48 24 1 100.978 98.7812 102.093
49 25 1 100.017 101.648 99.7011
50 25 1 100.936 101.14 100.23
51 26 1 97.4496 102.064 99.5319
52 26 1 97.2778 101.94 100.75
53 27 1 100.086 97.0935 97.3405
54 27 1 101.137 102.732 97.8282
55 28 1 98.1118 98.0356 100.76
56 28 1 98.2227 98.9354 100.001
57 29 1 98.8231 99.9122 98.8905
58 29 1 97.8753 100.636 98.9196
59 30 1 99.9287 101.822 102.889
60 30 1 99.116 102.496 97.5806
61 31 1 97.187 98.0251 100.27
62 31 1 102.574 97.544 99.4969
63 32 1 98.4312 101.859 98.1613
64 32 1 99.4373 101.357 97.7442
65 33 1 100.711 98.8255 97.1748
66 33 1 99.6716 98.6726 102.488
67 34 1 99.9013 99.345 97.748
68 34 1 99.8861 98.1412 97.4836
69 35 1 102.964 102.853 101.359
70 35 1 101.779 102.931 101.07
71 36 1 97.9485 102.273 102.046
72 36 1 98.7621 101.78 102.783
73 37 1 99.3357 102.337 102.101
74 37 1 99.7924 97.2765 101.451
75 38 1 98.3184 101.056 101.955
76 38 1 98.3139 101.862 101.099
77 39 1 99.276 101.836 98.8191
78 39 1 99.2995 97.0206 98.5266
79 40 1 101.978 99.1505 101.786
80 40 1 101.014 99.2408 101.056
81 41 1 101.108 101.981 102.798
82 41 1 100.333 101.728 101.882
83 42 1 99.384 102.319 100.868
84 42 1 98.64 96.9956 101.533
85 43 1 102.441 98.5501 99.7592
86 43 1 101.436 98.8549 99.1058
87 44 1 102.583 99.8524 100.253
88 44 1 101.664 99.0846 100.218
89 45 1 100.673 99.9129 102.822
90 45 1 101.805 100.258 102.542
91 46 1 100.507 98.2556 99.2568
92 46 1 100.612 98.5162 100.405
93 47 1 100.114 98.4542 101.381
94 47 1 99.7857 97.7475 100.48
95 48 1 96.9292 99.0154 98.7406
96 48 1 102.576 98.5625 97.7287
97 49 1 102.653 100.824 101.488