ITEM: TIMESTEP
0
ITEM: NUMBER OF ATOMS
200
ITEM: BOX BOUNDS pp pp pp
9.7026460909703147e+01 1.0297353909029685e+02
9.7026460909703147e+01 1.0297353909029685e+02
9.7026460909703147e+01 1.0297353909029685e+02
ITEM: ATOMS id mol type x y z
1 1 1 97.239 98.7892 101.632
2 1 1 102.461 99.5748 101.941
3 2 1 100.076 102.574 98.5923
4 2 1 101.045 102.37 99.2141
5 3 1 100.588 99.9366 97.929
6 3 1 99.4876 99.7482 97.5011
7 4 1 97.4263 99.7263 102.579
8 4 1 97.5021 100.931 102.807
9 5 1 100.157 98.94 102.802
10 5 1 99.3631 99.5075 102.098
11 6 1 102.778 101.04 101.168
12 6 1 102.31 102.175 101.426
13 7 1 98.3939 97.5617 102.069
14 7 1 98.215 102.38 102.201
15 8 1 97.1453 100.238 100.496
16 8 1 97.3828 101.324 100.141
17 9 1 101.9 101.272 101.701
18 9 1 102.658 101.744 102.514
19 10 1 102.303 99.7039 99.9166
20 10 1 97.1198 100.537 99.4035
21 11 1 97.0638 102.218 98.0438
22 11 1 97.2699 97.4077 98.0196
23 12 1 102.276 97.3062 101.513
24 12 1 97.3614 97.734 101.774
25 13 1 98.9572 100.727 101.472
26 13 1 97.8466 100.918 101.044
27 14 1 99.3593 101.704 101.683
28 14 1 98.9899 102.811 101.559
29 15 1 102.567 97.5686 99.8757
30 15 1 97.7515 97.1528 99.8324
31 16 1 100.678 102.9 102.33
32 16 1 100.508 97.7837 101.458
33 17 1 102.653 98.8496 102.725
34 17 1 102.411 97.7137 102.458
35 18 1 100.775 98.7061 99.7401
36 18 1 101.442 97.7153 99.9407
37 19 1 102.711 102.739 97.0927
38 19 1 97.1732 102.608 101.952
39 20 1 101.739 97.2664 98.9662
40 20 1 100.947 98.098 98.7412
41 21 1 98.9719 98.7756 97.4436
42 21 1 97.8035 98.3809 97.6751
43 22 1 98.5732 97.7959 97.2194
44 22 1 98.1501 102.709 97.6518
45 23 1 97.9561 98.7044 99.6856
46 23 1 97.439 97.8628 99.0662
47 24 1 101.431 97.6138 102.059
48 24 1 101.635 98.3839 102.918
49 25 1 99.3307 101.649 99.5414
50 25 1 100.319 101.742 100.259
51 26 1 97.0527 102.867 100.679
52 26 1 101.877 102.965 100.591
53 27 1 100.246 97.1004 97.3112
54 27 1 101.107 102.286 97.0846
55 28 1 97.875 98.5613 102.544
56 28 1 98.1406 98.2887 101.395
57 29 1 98.2978 101.637 99.3455
58 29 1 97.2647 102.253 99.6334
59 30 1 99.2783 97.1288 97.8527
60 30 1 98.973 102.929 102.69
61 31 1 102.657 99.232 100.793
62 31 1 102.884 98.5642 99.8434
63 32 1 98.1322 100.342 102.008
64 32 1 98.471 99.6337 102.899
65 33 1 100.549 97.9861 102.569
66 33 1 99.8626 98.583 101.807
67 34 1 99.6776 98.0138 97.2162
68 34 1 100.792 98.1576 97.6304
69 35 1 98.9846 98.9109 101.21
70 35 1 98.9059 98.5155 102.355
71 36 1 99.1333 100.446 102.596
72 36 1 98.3925 100.9 97.3713
73 37 1 99.831 102.281 102.632
74 37 1 99.7256 97.4919 102.193
75 38 1 97.7503 99.0084 100.709
76 38 1 97.3297 99.9481 101.422
77 39 1 98.9896 102.358 98.5441
78 39 1 98.8227 102.742 99.6315
79 40 1 101.706 99.269 101.254
80 40 1 100.736 99.8466 101.33
81 41 1 100.966 101.935 102.034
82 41 1 101.144 102.881 101.317
83 42 1 98.7185 97.3177 100.555
84 42 1 98.1646 102.266 100.31
85 43 1 102.623 98.124 100.9
86 43 1 101.441 98.0575 100.965
87 44 1 100.348 99.6529 99.9946
88 44 1 101.384 99.4832 99.3533
89 45 1 101.047 99.1888 97.3647
90 45 1 100.631 99.7152 102.307
91 46 1 102.29 99.4275 98.7599
92 46 1 101.235 99.0531 98.3544
93 47 1 99.1544 97.8998 101.367
94 47 1 99.7903 97.1773 100.744
95 48 1 99.2146 98.1846 98.2665
96 48 1 98.1589 98.6022 98.6826
97 49 1 99.348 101.325 98.5384
98 49 1 98.7913 100.334 98.151
99 50 1 97.6316 102.011 102.968
100 50 1 97.5429 101.434 101.911
101 51 1 102.301 101.176 98.386
102 51 1 97.3477 101.468 98.9042
103 52 1 98.2797 101.605 98.193
104 52 1 97.8936 100.591 98.7007
105 53 1 99.374 97.3558 98.905
106 53 1 98.434 97.7685 99.3906
107 54 1 100.355 101.44 101.348
108 54 1 99.4739 101.192 100.669
109 55 1 101.512 97.3406 97.212
110 55 1 101.804 98.0767 98.1217
111 56 1 102.693 100.271 98.1394
112 56 1 97.1968 99.2632 97.6184
113 57 1 101.688 99.3181 102.531
114 57 1 102.092 99.0701 97.6766
115 58 1 102.167 97.0646 97.9764
116 58 1 102.634 98.0452 97.4672
117 59 1 99.9726 98.4042 99.0999
118 59 1 100.122 97.6702 98.2256
119 60 1 98.5636 99.4453 100.103
120 60 1 97.4271 99.5789 99.7234
121 61 1 100.189 100.357 97.031
122 61 1 99.9048 100.396 101.784
123 62 1 102.408 101.874 100.407
124 62 1 101.38 101.667 99.9232
125 63 1 99.1789 100.284 100.327
126 63 1 98.5288 101.309 100.329
127 64 1 102.397 99.9158 97.0787
128 64 1 101.677 100.003 98.0616
129 65 1 100.403 99.41 98.9534
130 65 1 99.428 99.6437 99.5273
131 66 1 100.484 97.8768 100.345
132 66 1 100.501 97.3611 99.2689
133 67 1 99.6832 98.7699 100.152
134 67 1 99.7381 99.5911 101.01
135 68 1 97.9532 102.905 101.239
136 68 1 98.4155 101.862 101.288
137 69 1 98.8662 100.713 99.2073
138 69 1 98.0844 100.433 99.9826
139 70 1 101.58 100.198 101.925
140 70 1 102.637 100.652 102.158
141 71 1 100.619 101.331 97.1523
142 71 1 99.5017 100.951 97.5913
143 72 1 100.933 101.969 98.1647
144 72 1 101.978 102.183 98.631
145 73 1 98.9834 98.6814 99.3633
146 73 1 99.4843 97.7203 99.8632
147 74 1 98.2694 99.3903 97.9407
148 74 1 97.377 99.5916 98.6414
149 75 1 101.272 100.849 100.917
150 75 1 101.304 99.7863 100.381
151 76 1 99.7542 100.279 98.5831
152 76 1 100.884 100.365 98.8264
153 77 1 102.396 101.526 99.4184
154 77 1 101.37 101.318 98.9301
155 78 1 102.009 102.488 99.6659
156 78 1 100.93 102.746 100.198
157 79 1 101.018 100.676 99.8293
158 79 1 100.389 101.532 99.188
159 80 1 101.604 101.383 102.694
160 80 1 101.391 101.005 97.9052
161 81 2 98.2061 99.29 101.82
162 82 2 97.6468 97.9061 100.523
163 83 2 101.364 101.918 100.944
164 84 2 98.5717 101.403 102.365
165 85 2 101.844 98.7482 100.181
166 86 2 98.3817 97.5721 98.3524
167 87 2 102.104 98.4729 101.802
168 88 2 100.121 102.56 101.528
169 89 2 98.6827 98.3357 100.368
170 90 2 99.2137 102.215 100.579
171 91 2 102.095 100.202 101.03
172 92 2 97.315 101.948 101.009
173 93 2 98.8413 101.984 97.2599
174 94 2 100.286 100.606 100.697
175 95 2 100.083 98.8598 98.0175
176 96 2 101.912 98.4797 99.1399
177 97 2 102.883 98.5885 98.4579
178 98 2 100.814 100.892 102.092
179 99 2 97.8476 102.57 98.7383
180 100 2 101.097 97.1025 98.1446
181 101 2 102.059 101.899 97.6058
182 102 2 99.2741 99.3487 98.4773
183 103 2 102.195 100.806 100.158
184 104 2 102.422 100.916 97.2679
185 105 2 102.755 97.0555 98.8924
186 106 2 99.9225 102.56 99.6956
187 107 2 99.9642 100.655 99.6709
188 108 2 97.5634 97.4772 102.927
189 109 2 98.4253 99.6885 99.0842
190 110 2 101.249 100.305 97.0998
191 111 2 97.3822 101.211 97.8525
192 112 2 101.839 102.562 102.316
193 113 2 98.4315 99.9425 100.998
194 114 2 101.997 100.448 99.1512
195 115 2 99.8084 102.041 97.7059
196 116 2 100.393 101.076 98.1951
197 117 2 97.6785 100.2 97.6439
198 118 2 99.8032 101.244 102.495
199 119 2 101.02 98.7821 101.898
200 120 2 100.635 98.9431 100.847
ITEM: TIMESTEP
1000
ITEM: NUMBER OF ATOMS
200
ITEM: BOX BOUNDS pp pp pp
9.6996576345014361e+01 1.0300342365498564e+02
9.7026460909703147e+01 1.0297353909029685e+02
9.7026460909703147e+01 1.0297353909029685e+02
ITEM: ATOMS id mol type x y z
1 1 1 97.3096 98.8054 101.654
2 1 1 102.507 99.5541 102.006
3 2 1 100.055 102.59 98.5356
4 2 1 101.018 102.459 99.1446
5 3 1 100.544 99.9092 97.8839
6 3 1 99.4554 99.663 97.4048
7 4 1 97.4233 99.72 102.572
8 4 1 97.4799 100.887 102.775
9 5 1 100.028 98.9215 102.746
10 5 1 99.3735 99.5288 102.015
11 6 1 102.758 101.052 101.107
12 6 1 102.401 102.151 101.448
13 7 1 98.4228 97.6147 102.107
14 7 1 98.2201 102.429 102.296
15 8 1 97.1666 100.162 100.518
16 8 1 97.3163 101.23 100.089
17 9 1 101.876 101.252 101.702
18 9 1 102.623 101.778 102.491
19 10 1 102.347 99.7259 99.942
20 10 1 97.0229 100.478 99.3418
21 11 1 97.0424 102.122 98.0523
22 11 1 97.2881 97.3444 97.9861
23 12 1 102.27 97.2562 101.525
24 12 1 97.3275 97.7814 101.755
25 13 1 98.904 100.746 101.419
26 13 1 97.7642 100.897 101.152
27 14 1 99.4227 101.717 101.634
28 14 1 99.0582 102.803 101.596
29 15 1 102.669 97.5281 99.9535
30 15 1 97.7573 97.0886 99.9465
31 16 1 100.707 102.946 102.382
32 16 1 100.486 97.7658 101.44
33 17 1 102.905 98.7724 102.663
34 17 1 102.458 97.6384 102.486
35 18 1 100.784 98.7413 99.6976
36 18 1 101.46 97.7635 99.8932
37 19 1 102.686 102.783 97.1437
38 19 1 97.1852 102.657 102.024
39 20 1 101.775 97.3882 98.9373
40 20 1 100.912 98.1781 98.7187
41 21 1 98.9068 98.7541 97.4368
42 21 1 97.7642 98.3793 97.6798
43 22 1 98.556 97.8034 97.2355
44 22 1 98.1432 102.704 97.7029
45 23 1 97.9367 98.6543 99.709
46 23 1 97.3908 97.8164 99.1423
47 24 1 101.427 97.6293 102.04
48 24 1 101.675 98.3706 102.893
49 25 1 99.3434 101.618 99.5663
50 25 1 100.344 101.744 100.278
51 26 1 97.0305 102.898 100.826
52 26 1 101.9 102.992 100.585
53 27 1 100.159 97.0461 97.3776
54 27 1 101.084 102.255 97.1333
55 28 1 97.9624 98.5514 102.552
56 28 1 98.1944 98.3259 101.414
57 29 1 98.297 101.567 99.3751
58 29 1 97.228 102.175 99.6779
59 30 1 99.2028 97.1213 97.8632
60 30 1 99.0508 102.989 102.688
61 31 1 102.713 99.1827 100.811
62 31 1 102.874 98.5772 99.8022
63 32 1 98.11 100.389 102.08
64 32 1 98.4739 99.6482 102.894
65 33 1 100.591 98.0723 102.511
66 33 1 99.8705 98.6511 101.68
67 34 1 99.6528 97.9835 97.1887
68 34 1 100.818 98.1548 97.579
69 35 1 98.9913 98.9802 101.144
70 35 1 99.0224 98.5209 102.266
71 36 1 99.1183 100.398 102.577
72 36 1 98.3809 100.916 97.3762
73 37 1 99.8498 102.3 102.515
74 37 1 99.767 97.5264 102.155
75 38 1 97.7603 99.101 100.672
76 38 1 97.3398 99.9231 101.526
77 39 1 99.0036 102.305 98.5497
78 39 1 98.7587 102.687 99.6267
79 40 1 101.698 99.2372 101.283
80 40 1 100.807 99.9362 101.327
81 41 1 100.979 101.934 102.081
82 41 1 101.156 102.882 101.346
83 42 1 98.7032 97.2986 100.518
84 42 1 98.1866 102.155 100.287
85 43 1 102.63 98.0914 100.897
86 43 1 101.455 98.0282 100.996
87 44 1 100.397 99.7732 99.9007
88 44 1 101.446 99.509 99.3624
89 45 1 100.945 99.1366 97.269
90 45 1 100.603 99.739 102.316
91 46 1 102.264 99.403 98.7108
92 46 1 101.173 99.1103 98.3497
93 47 1 99.1856 97.8899 101.341
94 47 1 99.8124 97.1536 100.688
95 48 1 99.163 98.2124 98.3169
96 48 1 98.0388 98.6226 98.6833
97 49 1 99.3568 101.312 98.5431
98 49 1 98.747 100.3 98.1486
99 50 1 97.5584 102.027 103.006
100 50 1 97.5067 101.537 101.943
101 51 1 102.361 101.196 98.422
102 51 1 97.3834 101.467 98.9008
103 52 1 98.3071 101.579 98.259
104 52 1 97.8684 100.54 98.6883
105 53 1 99.3316 97.3306 98.8859
106 53 1 98.4164 97.7268 99.4323
107 54 1 100.404 101.477 101.309
108 54 1 99.4752 101.209 100.632
109 55 1 101.489 97.3559 97.1823
110 55 1 101.798 98.1122 98.0947
111 56 1 102.702 100.238 98.1453
112 56 1 97.1375 99.2348 97.6635
113 57 1 101.688 99.3364 102.535
114 57 1 102.029 99.0375 97.6936
115 58 1 102.167 97.1014 97.984
116 58 1 102.634 98.0925 97.4664
117 59 1 99.9325 98.4398 99.1365
118 59 1 100.032 97.6847 98.2086
119 60 1 98.5674 99.4322 100.09
120 60 1 97.4036 99.5435 99.7617
121 61 1 100.121 100.377 96.9974
122 61 1 99.9056 100.472 101.752
123 62 1 102.451 101.887 100.396
124 62 1 101.396 101.659 99.865
125 63 1 99.2203 100.236 100.34
126 63 1 98.5014 101.152 100.429
127 64 1 102.437 99.9018 97.103
128 64 1 101.682 100.028 98.0628
129 65 1 100.36 99.4067 98.8938
130 65 1 99.3937 99.6652 99.4617
131 66 1 100.445 97.9331 100.337
132 66 1 100.455 97.3919 99.2503
133 67 1 99.7201 98.8524 100.142
134 67 1 99.8106 99.6389 101.041
135 68 1 97.96 102.97 101.3
136 68 1 98.4396 101.868 101.318
137 69 1 98.8798 100.616 99.1883
138 69 1 97.9991 100.398 99.8952
139 70 1 101.628 100.184 101.948
140 70 1 102.677 100.632 102.171
141 71 1 100.585 101.327 97.172
142 71 1 99.4531 100.931 97.5602
143 72 1 100.907 101.966 98.1851
144 72 1 101.935 102.194 98.6321
145 73 1 98.9327 98.6586 99.3421
146 73 1 99.452 97.7297 99.8701
147 74 1 98.2012 99.3816 97.9949
148 74 1 97.2963 99.5534 98.7378
149 75 1 101.273 100.868 100.954
150 75 1 101.373 99.8001 100.414
151 76 1 99.7345 100.274 98.5588
152 76 1 100.89 100.314 98.8183
153 77 1 102.427 101.539 99.412
154 77 1 101.368 101.32 98.8862
155 78 1 101.975 102.569 99.6592
156 78 1 100.913 102.727 100.199
157 79 1 101.023 100.686 99.8025
158 79 1 100.4 101.569 99.1711
159 80 1 101.66 101.42 102.724
160 80 1 101.416 101.06 97.8857
161 81 2 98.2243 99.3082 101.792
162 82 2 97.6442 97.9477 100.599
163 83 2 101.433 101.95 100.947
164 84 2 98.5557 101.405 102.38
165 85 2 101.845 98.7566 100.227
166 86 2 98.3169 97.6138 98.3946
167 87 2 102.185 98.4514 101.79
168 88 2 100.157 102.562 101.52
169 89 2 98.6929 98.3373 100.38
170 90 2 99.2454 102.225 100.586
171 91 2 102.119 100.17 101.039
172 92 2 97.3426 101.913 100.967
173 93 2 98.8739 102 97.2569
174 94 2 100.311 100.602 100.649
175 95 2 100.036 98.8193 97.9692
176 96 2 101.856 98.5582 99.147
177 97 2 102.841 98.5389 98.5136
178 98 2 100.859 100.877 102.095
179 99 2 97.9407 102.563 98.8115
180 100 2 101.06 97.1028 98.1624
181 101 2 102.067 101.878 97.6428
182 102 2 99.2561 99.336 98.4255
183 103 2 102.198 100.806 100.162
184 104 2 102.517 100.934 97.3402
185 105 2 102.811 96.9775 98.9133
186 106 2 99.892 102.575 99.6582
187 107 2 99.9391 100.717 99.6747
188 108 2 97.5401 97.4809 102.861
189 109 2 98.3871 99.6091 99.0752
190 110 2 101.29 100.345 97.0866
191 111 2 97.4092 101.179 97.8449
192 112 2 101.855 102.531 102.294
193 113 2 98.3412 99.9632 100.939
194 114 2 102 100.47 99.1483
195 115 2 99.8069 102.028 97.7083
196 116 2 100.386 101.037 98.215
197 117 2 97.7064 100.16 97.5811
198 118 2 99.6947 101.267 102.535
199 119 2 101.007 98.8423 101.955
200 120 2 100.713 98.9461 100.84
ITEM: TIMESTEP
2000
ITEM: NUMBER OF ATOMS
200
ITEM: BOX BOUNDS pp pp pp
9.6966391435457211e+01 1.0303360856454279e+02
9.7026460909703147e+01 1.0297353909029685e+02
9.7026460909703147e+01 1.0297353909029685e+02
ITEM: ATOMS id mol type x y z
1 1 1 97.2923 98.83 101.624
2 1 1 102.514 99.5685 101.928
3 2 1 100.021 102.405 98.623
4 2 1 101.073 102.46 99.136
5 3 1 100.536 99.9463 97.8912
6 3 1 99.4677 99.7403 97.4705
7 4 1 97.375 99.6896 102.551
8 4 1 97.4308 100.899 102.762
9 5 1 100.101 98.9678 102.747
10 5 1 99.3595 99.5021 102.07
11 6 1 102.75 101.093 101.055
12 6 1 102.339 102.141 101.477
13 7 1 98.3698 97.6505 102.162
14 7 1 98.2282 102.442 102.315
15 8 1 97.1772 100.228 100.493
16 8 1 97.3089 101.282 100.119
17 9 1 101.86 101.25 101.756
18 9 1 102.649 101.757 102.5
19 10 1 102.343 99.7196 99.8937
20 10 1 96.9576 100.508 99.3231
21 11 1 96.9775 102.187 98.0996
22 11 1 97.2269 97.3812 98.0497
23 12 1 102.263 97.3005 101.528
24 12 1 97.2761 97.7943 101.832
25 13 1 98.8432 100.776 101.417
26 13 1 97.738 100.988 101.114
27 14 1 99.3498 101.703 101.662
28 14 1 98.9713 102.812 101.579
29 15 1 102.651 97.5847 99.8973
30 15 1 97.6674 97.1359 99.8064
31 16 1 100.726 102.948 102.31
32 16 1 100.525 97.776 101.421
33 17 1 102.776 98.8594 102.719
34 17 1 102.45 97.71 102.485
35 18 1 100.836 98.6767 99.6467
36 18 1 101.487 97.6776 99.9302
37 19 1 102.739 102.756 97.0849
38 19 1 97.0795 102.637 101.95
39 20 1 101.809 97.3771 98.953
40 20 1 100.922 98.1505 98.6662
41 21 1 98.9244 98.8052 97.4266
42 21 1 97.7492 98.3536 97.6641
43 22 1 98.5514 97.8301 97.2465
44 22 1 98.1514 102.742 97.6342
45 23 1 97.9576 98.6565 99.7064
46 23 1 97.3702 97.8607 99.0685
47 24 1 101.441 97.6999 102.046
48 24 1 101.63 98.41 102.917
49 25 1 99.3556 101.592 99.6384
50 25 1 100.378 101.713 100.322
51 26 1 96.9663 102.932 100.744
52 26 1 101.897 102.921 100.607
53 27 1 100.243 97.1761 97.2815
54 27 1 101.079 102.328 97.1332
55 28 1 97.815 98.566 102.531
56 28 1 98.141 98.3189 101.423
57 29 1 98.2791 101.6 99.3655
58 29 1 97.2109 102.172 99.6613
59 30 1 99.2008 97.186 97.8848
60 30 1 99.0376 102.983 102.704
61 31 1 102.782 99.2371 100.769
62 31 1 102.912 98.647 99.7401
63 32 1 98.0621 100.38 102.049
64 32 1 98.4318 99.6856 102.915
65 33 1 100.565 98.0113 102.553
66 33 1 99.9021 98.6344 101.735
67 34 1 99.6367 98.032 97.208
68 34 1 100.816 98.1539 97.6019
69 35 1 99.005 98.9786 101.167
70 35 1 98.8999 98.5568 102.3
71 36 1 99.1668 100.482 102.514
72 36 1 98.3775 100.864 97.3064
73 37 1 99.8011 102.321 102.499
74 37 1 99.7656 97.4772 102.143
75 38 1 97.7783 99.0661 100.7
76 38 1 97.2756 99.915 101.452
77 39 1 98.9305 102.305 98.4415
78 39 1 98.7854 102.621 99.6023
79 40 1 101.731 99.239 101.218
80 40 1 100.779 99.8337 101.31
81 41 1 100.986 101.958 102.075
82 41 1 101.196 102.876 101.363
83 42 1 98.6466 97.2634 100.529
84 42 1 98.1142 102.197 100.303
85 43 1 102.654 98.1095 100.811
86 43 1 101.5 97.9751 100.99
87 44 1 100.408 99.6272 99.9636
88 44 1 101.453 99.5061 99.3594
89 45 1 101.036 99.2277 97.3692
90 45 1 100.695 99.7156 102.356
91 46 1 102.322 99.4236 98.762
92 46 1 101.266 99.0613 98.3564
93 47 1 99.1088 97.925 101.405
94 47 1 99.7247 97.1663 100.73
95 48 1 99.1363 98.1943 98.381
96 48 1 98.0446 98.589 98.6642
97 49 1 99.4079 101.313 98.5445
98 49 1 98.7604 100.334 98.1536
99 50 1 97.4987 102.055 103.021
100 50 1 97.5009 101.594 101.95
101 51 1 102.341 101.216 98.3923
102 51 1 97.3112 101.481 98.8755
103 52 1 98.2577 101.484 98.246
104 52 1 97.8274 100.488 98.6798
105 53 1 99.371 97.2582 98.926
106 53 1 98.4339 97.7293 99.4263
107 54 1 100.364 101.42 101.405
108 54 1 99.5268 101.22 100.668
109 55 1 101.511 97.368 97.1465
110 55 1 101.833 98.0446 98.0491
111 56 1 102.763 100.26 98.1513
112 56 1 97.1118 99.2137 97.6909
113 57 1 101.734 99.3521 102.541
114 57 1 102.108 99.0152 97.6781
115 58 1 102.279 97.0741 97.9735
116 58 1 102.724 98.0716 97.4761
117 59 1 99.9457 98.3595 99.1287
118 59 1 100.094 97.6214 98.235
119 60 1 98.5656 99.4213 100.062
120 60 1 97.4172 99.5645 99.7289
121 61 1 100.148 100.384 96.9966
122 61 1 99.925 100.41 101.762
123 62 1 102.465 101.972 100.437
124 62 1 101.389 101.714 99.9343
125 63 1 99.1895 100.265 100.364
126 63 1 98.5199 101.25 100.369
127 64 1 102.488 99.9064 97.1507
128 64 1 101.71 100.008 98.0907
129 65 1 100.385 99.2885 98.8936
130 65 1 99.4416 99.6873 99.4715
131 66 1 100.465 97.8478 100.281
132 66 1 100.495 97.3503 99.2014
133 67 1 99.7759 98.7084 100.139
134 67 1 99.8174 99.575 100.985
135 68 1 97.8804 102.95 101.297
136 68 1 98.3805 101.865 101.339
137 69 1 98.8733 100.607 99.1784
138 69 1 97.9747 100.47 99.8437
139 70 1 101.624 100.202 101.89
140 70 1 102.717 100.637 102.128
141 71 1 100.596 101.342 97.258
142 71 1 99.4425 101.012 97.5185
143 72 1 100.947 101.967 98.1318
144 72 1 101.987 102.214 98.6396
145 73 1 98.9444 98.6709 99.3482
146 73 1 99.455 97.7173 99.8904
147 74 1 98.2 99.3668 97.9488
148 74 1 97.3324 99.507 98.6853
149 75 1 101.284 100.817 101.01
150 75 1 101.346 99.7833 100.378
151 76 1 99.7187 100.272 98.5556
152 76 1 100.88 100.289 98.8741
153 77 1 102.411 101.573 99.4077
154 77 1 101.335 101.322 98.9455
155 78 1 102.033 102.536 99.6566
156 78 1 100.958 102.688 100.168
157 79 1 101.079 100.726 99.8214
158 79 1 100.401 101.603 99.2401
159 80 1 101.578 101.415 102.773
160 80 1 101.427 101.003 97.9262
161 81 2 98.2274 99.2876 101.798
162 82 2 97.6311 97.926 100.516
163 83 2 101.386 101.907 100.959
164 84 2 98.4706 101.421 102.343
165 85 2 101.895 98.734 100.176
166 86 2 98.3278 97.56 98.3974
167 87 2 102.21 98.485 101.769
168 88 2 100.165 102.537 101.476
169 89 2 98.6853 98.309 100.384
170 90 2 99.1706 102.187 100.611
171 91 2 102.153 100.225 100.978
172 92 2 97.2603 101.993 101.034
173 93 2 98.8743 101.946 97.2834
174 94 2 100.353 100.577 100.655
175 95 2 100.05 98.8065 97.9886
176 96 2 101.886 98.5127 99.164
177 97 2 102.881 98.5355 98.5039
178 98 2 100.845 100.863 102.163
179 99 2 97.8559 102.548 98.7896
180 100 2 101.162 97.1092 98.1072
181 101 2 102.118 101.901 97.6311
182 102 2 99.2813 99.3474 98.4388
183 103 2 102.226 100.829 100.153
184 104 2 102.426 100.933 97.3258
185 105 2 102.873 97.0338 98.9614
186 106 2 99.9408 102.529 99.784
187 107 2 99.9822 100.672 99.6714
188 108 2 97.5059 97.4796 102.966
189 109 2 98.4168 99.6285 99.0627
190 110 2 101.332 100.327 97.0786
191 111 2 97.2919 101.198 97.8451
192 112 2 101.863 102.551 102.316
193 113 2 98.3399 99.9637 100.97
194 114 2 101.97 100.494 99.1529
195 115 2 99.8082 102.146 97.6344
196 116 2 100.383 101.075 98.2863
197 117 2 97.6315 100.178 97.6138
198 118 2 99.8507 101.258 102.483
199 119 2 101.048 98.8097 101.95
200 120 2 100.726 98.8448 100.847
ITEM: TIMESTEP
3000
ITEM: NUMBER OF ATOMS
200
ITEM: BOX BOUNDS pp pp pp
9.6935903162515586e+01 1.0306409683748441e+02
9.7026460909703147e+01 1.0297353909029685e+02
9.7026460909703147e+01 1.0297353909029685e+02
ITEM: ATOMS id mol type x y z
1 1 1 97.2751 98.8231 101.658
2 1 1 102.593 99.5762 101.955
3 2 1 99.9779 102.502 98.6303
4 2 1 101.049 102.456 99.1592
5 3 1 100.529 99.9561 97.8283
6 3 1 99.3987 99.7538 97.4634
7 4 1 97.3981 99.6815 102.58
8 4 1 97.3973 100.897 102.788
9 5 1 100.087 98.9597 102.835
10 5 1 99.4228 99.5795 102.045
11 6 1 102.75 101.093 100.984
12 6 1 102.428 102.164 101.426
13 7 1 98.3635 97.6878 102.088
14 7 1 98.1375 102.453 102.317
15 8 1 97.1296 100.121 100.512
16 8 1 97.214 101.196 100.062
17 9 1 101.962 101.272 101.684
18 9 1 102.737 101.708 102.508
19 10 1 102.322 99.7169 99.8959
20 10 1 96.9055 100.447 99.3189
21 11 1 96.963 102.108 98.0275
22 11 1 97.2099 97.3361 98.0267
23 12 1 102.344 97.2656 101.541
24 12 1 97.285 97.7333 101.741
25 13 1 98.8615 100.812 101.459
26 13 1 97.7053 100.981 101.069
27 14 1 99.4013 101.684 101.634
28 14 1 99.0183 102.807 101.582
29 15 1 102.772 97.4738 99.8977
30 15 1 97.7652 97.1507 100.026
31 16 1 100.729 102.946 102.34
32 16 1 100.485 97.7775 101.414
33 17 1 102.922 98.7503 102.66
34 17 1 102.509 97.6024 102.534
35 18 1 100.798 98.7057 99.6682
36 18 1 101.431 97.6763 99.8144
37 19 1 102.902 102.697 97.1223
38 19 1 97.1134 102.644 101.933
39 20 1 101.904 97.3526 98.8928
40 20 1 100.988 98.0996 98.8014
41 21 1 98.8957 98.7921 97.4213
42 21 1 97.7663 98.3004 97.6536
43 22 1 98.5727 97.8291 97.1955
44 22 1 98.1378 102.756 97.5702
45 23 1 97.8651 98.6181 99.7784
46 23 1 97.3669 97.7429 99.0792
47 24 1 101.461 97.725 102.047
48 24 1 101.735 98.4023 102.947
49 25 1 99.2952 101.559 99.6171
50 25 1 100.325 101.695 100.231
51 26 1 96.928 102.925 100.796
52 26 1 101.892 103.066 100.618
53 27 1 100.223 97.0985 97.3243
54 27 1 101.076 102.246 97.1289
55 28 1 97.9243 98.6251 102.57
56 28 1 98.1732 98.3763 101.389
57 29 1 98.252 101.586 99.3497
58 29 1 97.2512 102.209 99.7952
59 30 1 99.2431 97.1671 97.8245
60 30 1 99.0012 102.982 102.677
61 31 1 102.758 99.1401 100.835
62 31 1 102.929 98.5942 99.7475
63 32 1 98.065 100.418 102.093
64 32 1 98.4173 99.6469 102.915
65 33 1 100.554 98.033 102.545
66 33 1 99.9451 98.6882 101.689
67 34 1 99.6442 98.0024 97.2244
68 34 1 100.789 98.1083 97.6173
69 35 1 99.019 99.0006 101.075
70 35 1 98.9494 98.619 102.249
71 36 1 99.0641 100.419 102.518
72 36 1 98.2952 100.911 97.3683
73 37 1 99.8322 102.332 102.58
74 37 1 99.7298 97.5108 102.151
75 38 1 97.6998 99.1218 100.73
76 38 1 97.3612 99.935 101.503
77 39 1 98.9244 102.345 98.4792
78 39 1 98.7996 102.639 99.6146
79 40 1 101.734 99.2369 101.253
80 40 1 100.827 99.8834 101.382
81 41 1 100.978 101.945 102.03
82 41 1 101.204 102.888 101.394
83 42 1 98.6983 97.2664 100.591
84 42 1 98.2115 102.166 100.339
85 43 1 102.623 98.0638 100.793
86 43 1 101.483 98.0666 101.049
87 44 1 100.36 99.659 99.9778
88 44 1 101.406 99.5523 99.4261
89 45 1 101.066 99.1228 97.438
90 45 1 100.755 99.7602 102.41
91 46 1 102.325 99.4252 98.826
92 46 1 101.243 99.0576 98.4359
93 47 1 99.1589 97.9353 101.363
94 47 1 99.8209 97.2126 100.725
95 48 1 99.0998 98.1715 98.2989
96 48 1 97.97 98.5381 98.6689
97 49 1 99.2825 101.32 98.5398
98 49 1 98.6898 100.324 98.1726
99 50 1 97.6647 101.901 103.08
100 50 1 97.4944 101.577 101.934
101 51 1 102.352 101.199 98.3802
102 51 1 97.2546 101.494 98.9551
103 52 1 98.1753 101.602 98.2428
104 52 1 97.8476 100.592 98.806
105 53 1 99.36 97.3419 98.8674
106 53 1 98.4289 97.679 99.3992
107 54 1 100.419 101.531 101.266
108 54 1 99.4886 101.18 100.664
109 55 1 101.529 97.3747 97.1663
110 55 1 101.857 98.1135 98.0826
111 56 1 102.729 100.163 98.1421
112 56 1 97.0967 99.1513 97.6531
113 57 1 101.75 99.3444 102.569
114 57 1 102.155 99.0574 97.7216
115 58 1 102.293 97.0721 97.9624
116 58 1 102.797 98.0605 97.4823
117 59 1 99.911 98.4494 99.1108
118 59 1 100.123 97.6852 98.26
119 60 1 98.5217 99.4499 100.092
120 60 1 97.3455 99.4986 99.7248
121 61 1 100.137 100.415 96.947
122 61 1 99.8852 100.553 101.691
123 62 1 102.479 101.957 100.371
124 62 1 101.412 101.742 99.8813
125 63 1 99.2519 100.203 100.351
126 63 1 98.4685 101.15 100.33
127 64 1 102.482 99.8903 97.1277
128 64 1 101.673 100.026 98.07
129 65 1 100.37 99.4084 98.8452
130 65 1 99.3837 99.6182 99.4906
131 66 1 100.539 97.8656 100.349
132 66 1 100.409 97.3841 99.2723
133 67 1 99.7452 98.6995 100.2
134 67 1 99.8679 99.5704 100.946
135 68 1 97.9256 102.962 101.269
136 68 1 98.371 101.841 101.374
137 69 1 98.8643 100.605 99.2357
138 69 1 97.9372 100.346 99.879
139 70 1 101.665 100.197 101.903
140 70 1 102.704 100.634 102.172
141 71 1 100.593 101.326 97.1923
142 71 1 99.429 100.917 97.561
143 72 1 100.887 101.993 98.1562
144 72 1 101.962 102.225 98.6215
145 73 1 98.8887 98.6396 99.339
146 73 1 99.512 97.7247 99.8361
147 74 1 98.1419 99.3401 97.9548
148 74 1 97.2323 99.4797 98.6532
149 75 1 101.297 100.955 100.906
150 75 1 101.387 99.8544 100.438
151 76 1 99.7035 100.308 98.5618
152 76 1 100.872 100.362 98.7841
153 77 1 102.413 101.613 99.3766
154 77 1 101.337 101.34 98.9029
155 78 1 101.988 102.613 99.6926
156 78 1 100.889 102.758 100.183
157 79 1 101.03 100.723 99.798
158 79 1 100.338 101.543 99.1851
159 80 1 101.63 101.405 102.686
160 80 1 101.428 101.084 97.8619
161 81 2 98.2495 99.3578 101.801
162 82 2 97.531 97.9834 100.67
163 83 2 101.468 101.991 100.917
164 84 2 98.4904 101.459 102.39
165 85 2 101.896 98.7422 100.183
166 86 2 98.3246 97.4918 98.3446
167 87 2 102.291 98.4651 101.744
168 88 2 100.16 102.572 101.509
169 89 2 98.6953 98.3063 100.327
170 90 2 99.3444 102.222 100.584
171 91 2 102.246 100.197 101.001
172 92 2 97.2715 101.921 100.96
173 93 2 98.8524 101.987 97.3176
174 94 2 100.37 100.574 100.624
175 95 2 100.011 98.8188 97.9474
176 96 2 101.967 98.4736 99.1415
177 97 2 102.91 98.5213 98.5448
178 98 2 100.874 100.922 102.062
179 99 2 97.8015 102.565 98.9053
180 100 2 101.116 97.0955 98.1494
181 101 2 102.124 101.934 97.5926
182 102 2 99.203 99.3672 98.439
183 103 2 102.196 100.845 100.072
184 104 2 102.495 100.944 97.3052
185 105 2 102.876 96.8811 98.9614
186 106 2 99.8787 102.555 99.6979
187 107 2 99.9463 100.658 99.6519
188 108 2 97.5206 97.5245 102.876
189 109 2 98.3144 99.5918 99.0423
190 110 2 101.35 100.359 97.111
191 111 2 97.2894 101.117 97.9148
192 112 2 101.901 102.54 102.336
193 113 2 98.3777 100.016 100.93
194 114 2 101.975 100.494 99.134
195 115 2 99.8082 102.003 97.7415
196 116 2 100.322 101.085 98.2198
197 117 2 97.5055 100.102 97.6214
198 118 2 99.6453 101.295 102.588
199 119 2 101.028 98.8222 102.015
200 120 2 100.726 98.9349 100.789
ITEM: TIMESTEP
4000
ITEM: NUMBER OF ATOMS
200
ITEM: BOX BOUNDS pp pp pp
9.6905108477336796e+01 1.0309489152266320e+02
9.7026460909703147e+01 1.0297353909029685e+02
9.7026460909703147e+01 1.0297353909029685e+02
ITEM: ATOMS id mol type x y z
1 1 1 97.209 98.8464 101.733
2 1 1 102.543 99.5843 101.974
3 2 1 100.096 102.552 98.5147
4 2 1 101.086 102.431 99.1537
5 3 1 100.477 99.8865 97.8581
6 3 1 99.3892 99.7278 97.4002
7 4 1 97.2926 99.6774 102.583
8 4 1 97.3235 100.879 102.76
9 5 1 100.095 98.9848 102.766
10 5 1 99.3104 99.5663 102.109
11 6 1 102.777 101.111 101.048
12 6 1 102.546 102.21 101.432
13 7 1 98.4009 97.6059 102.062
14 7 1 98.1233 102.439 102.342
15 8 1 97.0483 100.158 100.5
16 8 1 97.1356 101.234 100.079
17 9 1 101.928 101.315 101.73
18 9 1 102.675 101.8 102.526
19 10 1 102.389 99.7354 99.9259
20 10 1 103.031 100.484 99.3222
21 11 1 103.033 102.093 98.0926
22 11 1 97.2133 97.2933 97.979
23 12 1 102.318 97.2693 101.56
24 12 1 97.2169 97.7741 101.685
25 13 1 98.8384 100.816 101.455
26 13 1 97.6328 100.934 101.168
27 14 1 99.3381 101.707 101.716
28 14 1 99.0206 102.842 101.542
29 15 1 102.842 97.4298 99.9403
30 15 1 97.7779 97.076 99.9371
31 16 1 100.771 102.975 102.323
32 16 1 100.541 97.7645 101.389
33 17 1 102.837 98.8167 102.706
34 17 1 102.492 97.6787 102.483
35 18 1 100.865 98.6512 99.6663
36 18 1 101.586 97.7148 99.8715
37 19 1 102.787 102.754 97.1404
38 19 1 97.1378 102.727 102.048
39 20 1 101.837 97.4009 98.9152
40 20 1 100.951 98.1831 98.6894
41 21 1 98.9084 98.7898 97.4385
42 21 1 97.7787 98.2731 97.6904
43 22 1 98.5521 97.7875 97.2209
44 22 1 98.2106 102.641 97.6182
45 23 1 97.93 98.6231 99.763
46 23 1 97.3924 97.7629 99.1459
47 24 1 101.472 97.7484 102.033
48 24 1 101.742 98.4065 102.916
49 25 1 99.3004 101.593 99.6163
50 25 1 100.328 101.72 100.25
51 26 1 96.9623 102.953 100.905
52 26 1 101.975 102.964 100.596
53 27 1 100.225 97.1013 97.3202
54 27 1 101.029 102.278 97.1053
55 28 1 97.8492 98.6156 102.628
56 28 1 98.126 98.3686 101.441
57 29 1 98.1864 101.559 99.518
58 29 1 97.165 102.225 99.7286
59 30 1 99.2065 97.1091 97.8086
60 30 1 99.0531 102.974 102.628
61 31 1 102.746 99.1747 100.837
62 31 1 102.964 98.5508 99.8301
63 32 1 98.0089 100.354 102.093
64 32 1 98.3574 99.6639 102.955
65 33 1 100.553 98.0667 102.504
66 33 1 99.9471 98.6995 101.653
67 34 1 99.661 98.0085 97.1389
68 34 1 100.816 98.1109 97.5917
69 35 1 98.9884 99.0715 101.156
70 35 1 98.9058 98.5485 102.284
71 36 1 99.0106 100.496 102.545
72 36 1 98.2847 100.959 97.4165
73 37 1 99.9278 102.32 102.536
74 37 1 99.8244 97.4714 102.092
75 38 1 97.6494 99.1337 100.741
76 38 1 97.2112 99.9666 101.499
77 39 1 98.9716 102.305 98.4464
78 39 1 98.8381 102.598 99.5842
79 40 1 101.743 99.2246 101.293
80 40 1 100.818 99.8885 101.318
81 41 1 100.971 101.953 102.024
82 41 1 101.238 102.902 101.356
83 42 1 98.7192 97.322 100.503
84 42 1 98.3263 102.151 100.421
85 43 1 102.693 98.0577 100.822
86 43 1 101.506 97.9768 100.946
87 44 1 100.407 99.6681 99.9415
88 44 1 101.451 99.5179 99.3553
89 45 1 101.049 99.1454 97.3837
90 45 1 100.781 99.7457 102.345
91 46 1 102.375 99.4158 98.7897
92 46 1 101.275 99.1178 98.3855
93 47 1 99.1796 97.9657 101.383
94 47 1 99.8433 97.2223 100.697
95 48 1 99.1186 98.2026 98.3483
96 48 1 97.9951 98.5478 98.6991
97 49 1 99.3772 101.29 98.5396
98 49 1 98.6982 100.347 98.1586
99 50 1 97.4198 102.048 97.0752