ITEM: TIMESTEP
0
ITEM: NUMBER OF ATOMS
200
ITEM: BOX BOUNDS pp pp pp
9.7031022597591175e+01 1.0296897740240883e+02
9.7031022597591175e+01 1.0296897740240883e+02
9.7031022597591175e+01 1.0296897740240883e+02
ITEM: ATOMS id mol type x y z
1 1 1 101.606 98.1773 99.5499
2 1 1 102.01 98.6148 100.631
3 2 1 101.169 102.644 102.527
4 2 1 100.84 102.158 97.6191
5 3 1 99.8987 100.641 97.3138
6 3 1 100.266 99.6916 102.531
7 4 1 98.4618 99.8102 101.858
8 4 1 98.0291 100.092 102.929
9 5 1 99.6309 98.3164 101.614
10 5 1 99.5174 99.4942 101.556
11 6 1 97.5215 101.146 100.507
12 6 1 102.423 100.699 100.749
13 7 1 97.7132 97.7014 102.765
14 7 1 98.8282 97.3529 97.0708
15 8 1 102.485 100.267 99.8078
16 8 1 102.904 101.363 99.6236
17 9 1 102.487 98.9907 102.688
18 9 1 102.84 100.165 102.782
19 10 1 101.312 100.061 99.4437
20 10 1 102.18 100.726 98.8612
21 11 1 101.392 97.527 98.6471
22 11 1 102.416 97.8178 98.1603
23 12 1 97.9046 97.8609 100.083
24 12 1 98.1363 97.8477 101.278
25 13 1 98.0039 101.812 102.177
26 13 1 98.302 97.0396 102.159
27 14 1 101.119 102.245 101.552
28 14 1 100.104 102.706 101.425
29 15 1 97.2126 102.409 99.2748
30 15 1 97.9833 101.493 99.3645
31 16 1 102.371 102.687 102.287
32 16 1 102.291 102.79 101.128
33 17 1 97.3881 98.502 100.782
34 17 1 97.6284 98.4463 101.981
35 18 1 100.454 97.874 98.8915
36 18 1 100.864 98.9785 99.0692
37 19 1 102.246 101.004 97.372
38 19 1 101.061 101.186 97.1958
39 20 1 100.97 98.1831 97.8083
40 20 1 100.523 97.098 98.1737
41 21 1 99.2625 98.6531 97.6041
42 21 1 98.7538 97.6574 98.0855
43 22 1 97.4137 97.496 99.2538
44 22 1 98.632 97.8048 99.2875
45 23 1 102.647 98.5086 99.0304
46 23 1 97.8088 98.5581 99.2371
47 24 1 102.53 97.8962 101.207
48 24 1 101.596 97.3475 101.742
49 25 1 99.791 101.768 100.031
50 25 1 99.6755 100.611 100.317
51 26 1 102.579 102.763 100.123
52 26 1 101.764 97.5862 100.444
53 27 1 101.801 102.033 97.1761
54 27 1 102.827 101.596 102.628
55 28 1 98.2406 99.062 102.601
56 28 1 99.396 98.9673 102.473
57 29 1 97.7387 102.045 98.3718
58 29 1 102.588 101.668 98.6776
59 30 1 99.4549 97.2281 98.6878
60 30 1 99.9202 97.8945 97.8451
61 31 1 101.909 99.7031 98.659
62 31 1 101.31 99.183 97.8142
63 32 1 98.7687 102.272 102.841
64 32 1 99.4688 101.406 102.416
65 33 1 99.0893 97.3145 101.55
66 33 1 99.9707 97.6769 100.873
67 34 1 101.285 98.0076 102.565
68 34 1 100.46 97.3204 97.0468
69 35 1 99.6376 102.813 102.384
70 35 1 99.6769 97.9575 102.734
71 36 1 99.5957 101.641 97.4726
72 36 1 98.7273 102.288 97.9659
73 37 1 100.322 102.033 102.596
74 37 1 101.093 101.251 102.025
75 38 1 99.6211 100.486 101.391
76 38 1 98.6648 100.926 101.926
77 39 1 98.8775 101.909 98.9289
78 39 1 99.191 102.787 99.6572
79 40 1 100.056 102.74 100.265
80 40 1 100.969 97.1399 100.9
81 41 1 102.533 101.753 100.634
82 41 1 97.041 101.195 101.561
83 42 1 98.1518 102.737 101.119
84 42 1 98.1632 102.825 99.8914
85 43 1 101.057 98.2174 101.132
86 43 1 101.112 98.9572 100.131
87 44 1 100.46 99.8816 100.365
88 44 1 100.052 98.8344 99.8664
89 45 1 100.59 98.7589 101.922
90 45 1 101.779 98.5633 101.81
91 46 1 100.855 99.8999 98.4931
92 46 1 99.8563 99.4251 99.0388
93 47 1 98.3589 98.7259 100.39
94 47 1 98.8233 97.5587 100.457
95 48 1 97.4953 98.8991 98.2697
96 48 1 98.2131 98.3539 97.4727
97 49 1 97.4562 99.4889 102.188
98 49 1 102.64 99.0072 101.457
99 50 1 98.3025 101.225 98.1125
100 50 1 98.908 100.321 97.7016
101 51 1 97.0523 99.6706 98.8814
102 51 1 97.6055 100.448 99.5801
103 52 1 102.631 100.154 97.9458
104 52 1 97.3609 99.3445 97.3551
105 53 1 99.0042 98.8865 99.4994
106 53 1 99.3839 98.4895 100.607
107 54 1 100.596 101.9 100.675
108 54 1 100.044 101.668 101.614
109 55 1 97.3283 97.3958 101.82
110 55 1 102.392 97.8275 102.425
111 56 1 98.969 99.5667 98.4933
112 56 1 98.4442 100.57 98.9261
113 57 1 101.899 99.8513 97.1985
114 57 1 102.413 99.081 97.9731
115 58 1 102.807 101.925 97.6989
116 58 1 102.665 97.1211 97.3633
117 59 1 101.732 98.5621 98.5539
118 59 1 101.918 98.3571 97.3844
119 60 1 97.7879 99.3976 101.148
120 60 1 97.8581 100.585 101.404
121 61 1 101.215 100.284 102.491
122 61 1 100.231 100.744 102.212
123 62 1 101.514 101.357 100.951
124 62 1 101.456 100.245 100.47
125 63 1 97.8696 101.839 97.2816
126 63 1 97.6276 100.889 102.437
127 64 1 101.576 100.502 97.9978
128 64 1 101.152 101.007 98.9524
129 65 1 99.1246 99.9893 99.5143
130 65 1 98.4861 100.841 100.069
131 66 1 99.4011 99.5665 100.465
132 66 1 98.2443 99.7342 100.093
133 67 1 100.552 99.9127 101.517
134 67 1 101.587 100.419 101.449
135 68 1 97.1305 102.893 98.3315
136 68 1 97.9613 102.888 97.5369
137 69 1 98.6656 100.235 100.928
138 69 1 97.3994 100.112 100.575
139 70 1 99.5961 99.601 97.4078
140 70 1 98.4575 99.3587 97.6364
141 71 1 99.8754 100.133 98.2514
142 71 1 100.489 101.133 98.0976
143 72 1 101.089 102.314 98.7171
144 72 1 101.652 101.531 98.1128
145 73 1 98.4987 98.6395 98.4585
146 73 1 99.5762 98.4201 98.6897
147 74 1 97.2322 99.2488 99.8839
148 74 1 102.341 99.6133 100.648
149 75 1 101.971 99.6494 102.055
150 75 1 101.354 99.3584 101.098
151 76 1 98.6529 101.894 100.07
152 76 1 99.2625 101.053 99.4568
153 77 1 100.742 101.015 100.066
154 77 1 100.204 101.47 99.1128
155 78 1 102.015 102.177 99.3959
156 78 1 101.238 97.1197 99.6021
157 79 1 100.951 102.018 99.7182
158 79 1 100.249 102.797 99.2107
159 80 1 97.3143 97.3111 100.735
160 80 1 97.4872 102.17 100.317
161 81 2 99.2815 100.208 102.493
162 82 2 102.285 97.34 99.1521
163 83 2 101.66 102.335 100.434
164 84 2 98.6102 101.116 97.0585
165 85 2 100.644 97.8772 100.099
166 86 2 97.6539 97.8632 98.2417
167 87 2 102.674 97.9342 100.002
168 88 2 102.138 101.803 101.757
169 89 2 98.65 98.7791 101.523
170 90 2 99.1829 102.461 100.76
171 91 2 102.055 99.1595 99.6356
172 92 2 98.1828 102.91 98.7268
173 93 2 99.7236 102.681 97.5054
174 94 2 100.587 100.858 101.071
175 95 2 100.366 98.6556 97.1013
176 96 2 100.213 99.0315 98.0609
177 97 2 97.0741 98.2851 97.3879
178 98 2 101.262 99.0867 102.712
179 99 2 97.3228 100.902 98.5568
180 100 2 101.503 97.2522 97.4981
181 101 2 97.476 100.879 97.5323
182 102 2 98.1021 99.5942 99.0824
183 103 2 101.82 101.221 99.8969
184 104 2 98.1499 101.63 101.158
185 105 2 102.057 102.599 98.2414
186 106 2 99.6465 97.8267 99.6908
187 107 2 99.1635 101.338 100.924
188 108 2 98.7302 98.0638 102.271
189 109 2 102.746 100.158 101.623
190 110 2 100.745 99.9947 97.4379
191 111 2 97.9304 100.06 98.1413
192 112 2 97.2279 102.279 101.481
193 113 2 98.9665 102.093 101.749
194 114 2 100.173 100.391 99.3011
195 115 2 99.9434 102.135 98.3976
196 116 2 99.364 101.079 98.3382
197 117 2 102.129 100.825 102.241
198 118 2 97.4176 102.579 102.587
199 119 2 100.497 97.609 101.948
200 120 2 100.261 98.926 100.924
ITEM: TIMESTEP
1000
ITEM: NUMBER OF ATOMS
200
ITEM: BOX BOUNDS pp pp pp
9.7001183878627842e+01 1.0299881612137216e+02
9.7031022597591175e+01 1.0296897740240883e+02
9.7031022597591175e+01 1.0296897740240883e+02
ITEM: ATOMS id mol type x y z
1 1 1 101.603 98.1664 99.5649
2 1 1 102.037 98.5773 100.62
3 2 1 101.227 102.749 102.532
4 2 1 100.852 102.186 97.5825
5 3 1 99.9412 100.656 97.3404
6 3 1 100.232 99.7203 102.511
7 4 1 98.4502 99.8347 101.876
8 4 1 98.0642 100.084 102.977
9 5 1 99.5987 98.3228 101.704
10 5 1 99.5258 99.5128 101.635
11 6 1 97.4717 101.121 100.39
12 6 1 102.398 100.732 100.703
13 7 1 97.6194 97.7208 102.741
14 7 1 98.7801 97.4058 97.0532
15 8 1 102.588 100.181 99.726
16 8 1 102.869 101.304 99.513
17 9 1 102.554 98.9595 102.704
18 9 1 102.798 100.179 102.73
19 10 1 101.366 100.13 99.4975
20 10 1 102.191 100.735 98.868
21 11 1 101.405 97.5323 98.6089
22 11 1 102.507 97.8394 98.2021
23 12 1 97.828 97.8981 100.055
24 12 1 98.104 97.8977 101.199
25 13 1 97.9993 101.831 102.145
26 13 1 98.2615 97.0665 102.156
27 14 1 101.131 102.22 101.537
28 14 1 100.026 102.653 101.392
29 15 1 97.0958 102.331 99.2213
30 15 1 97.8947 101.45 99.3731
31 16 1 102.351 102.787 102.262
32 16 1 102.259 102.759 101.094
33 17 1 97.2737 98.5032 100.76
34 17 1 97.5486 98.4942 101.9
35 18 1 100.49 97.9295 98.9434
36 18 1 100.898 98.9903 99.1288
37 19 1 102.246 100.98 97.3787
38 19 1 101.073 101.083 97.2315
39 20 1 100.982 98.1829 97.8696
40 20 1 100.524 97.1082 98.149
41 21 1 99.2473 98.6378 97.6543
42 21 1 98.7937 97.6217 98.0868
43 22 1 97.4028 97.4177 99.2847
44 22 1 98.5692 97.7641 99.2997
45 23 1 102.707 98.4976 99.062
46 23 1 97.8275 98.5411 99.2334
47 24 1 102.544 97.9141 101.252
48 24 1 101.595 97.4802 101.724
49 25 1 99.7497 101.749 100.067
50 25 1 99.7311 100.611 100.305
51 26 1 102.563 102.695 100.086
52 26 1 101.741 97.5475 100.494
53 27 1 101.928 102.102 97.1298
54 27 1 102.908 101.624 102.553
55 28 1 98.1838 99.0422 102.593
56 28 1 99.3661 98.9931 102.542
57 29 1 97.7185 101.986 98.4076
58 29 1 102.607 101.59 98.4866
59 30 1 99.5029 97.2854 98.7549
60 30 1 99.942 97.8936 97.8503
61 31 1 101.984 99.7485 98.7205
62 31 1 101.393 99.1909 97.8816
63 32 1 98.7617 102.298 102.78
64 32 1 99.4491 101.425 102.392
65 33 1 99.0715 97.3411 101.536
66 33 1 99.9792 97.7218 100.881
67 34 1 101.256 98.0048 102.649
68 34 1 100.444 97.3123 97.0757
69 35 1 99.6161 102.833 102.332
70 35 1 99.6288 97.9757 102.737
71 36 1 99.5667 101.625 97.4553
72 36 1 98.6752 102.261 97.9092
73 37 1 100.343 102.04 102.58
74 37 1 101.142 101.297 102.043
75 38 1 99.6423 100.506 101.407
76 38 1 98.6568 100.947 101.883
77 39 1 98.8058 101.883 98.8424
78 39 1 99.1285 102.758 99.5983
79 40 1 100.057 102.773 100.261
80 40 1 100.921 97.1393 100.96
81 41 1 102.549 101.762 100.623
82 41 1 96.9979 101.154 101.517
83 42 1 98.0616 102.711 101.124
84 42 1 98.1171 102.832 99.8929
85 43 1 101.053 98.2065 101.112
86 43 1 101.125 98.9223 100.171
87 44 1 100.51 99.8432 100.372
88 44 1 100.07 98.7805 99.943
89 45 1 100.657 98.7872 101.927
90 45 1 101.788 98.5571 101.831
91 46 1 100.873 99.882 98.564
92 46 1 99.893 99.4367 99.1325
93 47 1 98.3176 98.6923 100.436
94 47 1 98.7787 97.5363 100.456
95 48 1 97.5453 98.8836 98.1905
96 48 1 98.2329 98.2695 97.4374
97 49 1 97.4389 99.5929 102.162
98 49 1 102.672 98.9869 101.452
99 50 1 98.2973 101.205 98.0281
100 50 1 98.9083 100.337 97.672
101 51 1 97.0535 99.6098 98.8417
102 51 1 97.6562 100.409 99.5705
103 52 1 102.698 100.191 97.9061
104 52 1 97.3623 99.4048 97.3202
105 53 1 98.9082 98.7802 99.5562
106 53 1 99.2995 98.4929 100.64
107 54 1 100.602 101.911 100.683
108 54 1 100.093 101.652 101.593
109 55 1 97.2993 97.4475 101.814
110 55 1 102.437 97.9351 102.427
111 56 1 99.0312 99.5644 98.4625
112 56 1 98.4924 100.585 98.8651
113 57 1 101.899 99.8591 97.2393
114 57 1 102.479 99.1539 97.9933
115 58 1 102.859 102.044 97.6192
116 58 1 102.697 97.2484 97.3085
117 59 1 101.767 98.5603 98.5823
118 59 1 101.964 98.3623 97.4309
119 60 1 97.7247 99.3519 101.206
120 60 1 97.8075 100.531 101.445
121 61 1 101.202 100.184 102.448
122 61 1 100.266 100.769 102.283
123 62 1 101.536 101.303 101.032
124 62 1 101.458 100.226 100.517
125 63 1 97.8346 101.845 97.2487
126 63 1 97.6207 100.885 102.419
127 64 1 101.565 100.512 98.0494
128 64 1 101.178 101.02 99.0708
129 65 1 99.1239 100.038 99.5158
130 65 1 98.494 100.86 100.099
131 66 1 99.4119 99.5541 100.483
132 66 1 98.2773 99.6637 100.089
133 67 1 100.564 99.8803 101.485
134 67 1 101.642 100.378 101.481
135 68 1 97.1189 102.909 98.3395
136 68 1 97.8879 102.939 97.5168
137 69 1 98.6139 100.215 100.919
138 69 1 97.3774 100.068 100.558
139 70 1 99.6142 99.6198 97.4512
140 70 1 98.4875 99.3175 97.6128
141 71 1 99.8704 100.201 98.3421
142 71 1 100.538 101.204 98.1693
143 72 1 101.049 102.281 98.6619
144 72 1 101.662 101.522 98.0305
145 73 1 98.5136 98.6011 98.4641
146 73 1 99.5862 98.4625 98.7388
147 74 1 97.2105 99.2189 99.8597
148 74 1 102.344 99.6182 100.631
149 75 1 102.047 99.6099 102.108
150 75 1 101.399 99.3033 101.121
151 76 1 98.6207 101.873 100.032
152 76 1 99.2347 101.104 99.412
153 77 1 100.774 100.988 100.115
154 77 1 100.206 101.455 99.1193
155 78 1 102.034 102.113 99.2593
156 78 1 101.349 97.0809 99.5571
157 79 1 100.955 101.983 99.6492
158 79 1 100.294 102.826 99.2559
159 80 1 97.2655 97.3223 100.73
160 80 1 97.4541 102.144 100.329
161 81 2 99.2701 100.292 102.493
162 82 2 102.304 97.3289 99.1081
163 83 2 101.643 102.294 100.402
164 84 2 98.5881 101.113 96.9971
165 85 2 100.743 97.7819 100.042
166 86 2 97.6883 97.8681 98.2616
167 87 2 102.658 97.8848 100.026
168 88 2 102.194 101.829 101.762
169 89 2 98.6851 98.8695 101.585
170 90 2 99.1108 102.489 100.718
171 91 2 102.055 99.159 99.6658
172 92 2 98.1578 102.907 98.7083
173 93 2 99.6904 102.702 97.476
174 94 2 100.585 100.835 101.102
175 95 2 100.325 98.672 97.1267
176 96 2 100.264 99.0633 98.1296
177 97 2 97.0672 98.3394 97.454
178 98 2 101.294 99.0347 102.795
179 99 2 97.3561 100.86 98.5641
180 100 2 101.541 97.2467 97.5294
181 101 2 97.4188 100.95 97.5081
182 102 2 98.1122 99.5384 99.0536
183 103 2 101.795 101.229 99.9479
184 104 2 98.1625 101.597 101.07
185 105 2 102.115 102.617 98.2
186 106 2 99.6539 97.8125 99.7041
187 107 2 99.1857 101.33 100.926
188 108 2 98.645 98.079 102.241
189 109 2 102.733 100.155 101.596
190 110 2 100.735 99.9227 97.5119
191 111 2 97.9489 100.045 98.1394
192 112 2 97.159 102.282 101.459
193 113 2 98.9482 102.122 101.717
194 114 2 100.173 100.407 99.3316
195 115 2 99.8982 102.145 98.3677
196 116 2 99.4177 101.097 98.3124
197 117 2 102.114 100.881 102.302
198 118 2 97.3218 102.593 102.602
199 119 2 100.447 97.6191 101.968
200 120 2 100.249 98.878 100.989
ITEM: TIMESTEP
2000
ITEM: NUMBER OF ATOMS
200
ITEM: BOX BOUNDS pp pp pp
9.6971045275553365e+01 1.0302895472444663e+02
9.7031022597591175e+01 1.0296897740240883e+02
9.7031022597591175e+01 1.0296897740240883e+02
ITEM: ATOMS id mol type x y z
1 1 1 101.674 98.1381 99.5442
2 1 1 102.018 98.5883 100.638
3 2 1 101.259 102.727 102.536
4 2 1 100.881 102.248 97.639
5 3 1 99.9327 100.676 97.3224
6 3 1 100.215 99.7376 102.563
7 4 1 98.4564 99.7752 101.86
8 4 1 98.104 100.078 102.902
9 5 1 99.6036 98.3063 101.643
10 5 1 99.5783 99.4864 101.658
11 6 1 97.411 101.129 100.474
12 6 1 102.408 100.676 100.781
13 7 1 97.6661 97.7674 102.669
14 7 1 98.7802 97.4365 97.1064
15 8 1 102.586 100.217 99.8151
16 8 1 102.894 101.354 99.5658
17 9 1 102.525 99.0313 102.726
18 9 1 102.882 100.231 102.745
19 10 1 101.391 100.044 99.4852
20 10 1 102.257 100.666 98.8886
21 11 1 101.426 97.5532 98.6111
22 11 1 102.485 97.8576 98.2377
23 12 1 97.8057 97.8381 100.114
24 12 1 98.1509 97.8337 101.198
25 13 1 98.0406 101.867 102.095
26 13 1 98.3561 97.0891 102.101
27 14 1 101.217 102.3 101.573
28 14 1 100.092 102.667 101.381
29 15 1 96.9977 102.334 99.186
30 15 1 97.9071 101.542 99.3163
31 16 1 102.376 102.63 102.277
32 16 1 102.345 102.781 101.126
33 17 1 97.2702 98.5296 100.746
34 17 1 97.6229 98.4816 101.887
35 18 1 100.466 97.9217 98.9027
36 18 1 100.904 98.9317 99.0851
37 19 1 102.293 101.06 97.4812
38 19 1 101.108 101.163 97.1938
39 20 1 100.982 98.1645 97.8595
40 20 1 100.479 97.1265 98.1686
41 21 1 99.2003 98.6421 97.5937
42 21 1 98.7501 97.6764 98.1606
43 22 1 97.3608 97.4261 99.266
44 22 1 98.5775 97.7432 99.3213
45 23 1 102.746 98.5169 99.0754
46 23 1 97.8126 98.4953 99.2634
47 24 1 102.568 97.9191 101.269
48 24 1 101.602 97.4637 101.73
49 25 1 99.7302 101.802 99.985
50 25 1 99.6493 100.611 100.283
51 26 1 102.612 102.686 100.041
52 26 1 101.787 97.5309 100.457
53 27 1 101.925 102.087 97.1981
54 27 1 102.872 101.567 102.573
55 28 1 98.1978 99.0327 102.6
56 28 1 99.379 98.9639 102.536
57 29 1 97.6131 101.993 98.3423
58 29 1 102.591 101.539 98.4737
59 30 1 99.5821 97.3199 98.6735
60 30 1 99.9344 97.9504 97.7705
61 31 1 101.96 99.6752 98.6807
62 31 1 101.334 99.1415 97.8564
63 32 1 98.8026 102.297 102.809
64 32 1 99.4197 101.396 102.409
65 33 1 99.1283 97.3898 101.427
66 33 1 100.095 97.8147 100.86
67 34 1 101.282 97.983 102.634
68 34 1 100.452 97.2778 97.0887
69 35 1 99.6265 102.781 102.392
70 35 1 99.6761 97.949 102.648
71 36 1 99.5734 101.666 97.4768
72 36 1 98.6284 102.28 97.9009
73 37 1 100.331 102.044 102.713
74 37 1 101.073 101.334 102.047
75 38 1 99.5765 100.461 101.407
76 38 1 98.6214 100.936 101.849
77 39 1 98.8434 101.911 98.8885
78 39 1 99.1497 102.804 99.5908
79 40 1 99.9886 102.887 100.262
80 40 1 100.943 97.1232 100.917
81 41 1 102.576 101.72 100.583
82 41 1 96.9864 101.135 101.561
83 42 1 98.1072 102.639 101.093
84 42 1 98.1319 102.786 99.9224
85 43 1 101.074 98.2277 101.083
86 43 1 101.153 99.0366 100.137
87 44 1 100.433 99.8733 100.359
88 44 1 100.134 98.801 99.8835
89 45 1 100.593 98.783 101.893
90 45 1 101.794 98.5645 101.82
91 46 1 100.885 99.8528 98.5606
92 46 1 99.8763 99.4176 99.117
93 47 1 98.307 98.6993 100.42
94 47 1 98.8073 97.5715 100.415
95 48 1 97.5023 98.9583 98.2392
96 48 1 98.1734 98.3284 97.436
97 49 1 97.4173 99.5881 102.115
98 49 1 102.75 98.974 101.5
99 50 1 98.2445 101.198 98.1138
100 50 1 98.8952 100.336 97.6638
101 51 1 97.004 99.7168 98.9006
102 51 1 97.5594 100.445 99.6456
103 52 1 102.725 100.143 97.9489
104 52 1 97.3431 99.4105 97.3159
105 53 1 98.9627 98.8121 99.4892
106 53 1 99.3526 98.4929 100.531
107 54 1 100.606 101.982 100.691
108 54 1 100.023 101.636 101.641
109 55 1 97.3309 97.4339 101.75
110 55 1 102.473 97.9231 102.363
111 56 1 98.9965 99.6196 98.4878
112 56 1 98.3877 100.557 98.9556
113 57 1 101.938 99.8297 97.2359
114 57 1 102.509 99.1042 97.9869
115 58 1 102.889 102.023 97.6062
116 58 1 102.621 97.1716 97.2873
117 59 1 101.816 98.5791 98.5923
118 59 1 101.947 98.3549 97.4351
119 60 1 97.7676 99.337 101.155
120 60 1 97.7529 100.481 101.513
121 61 1 101.195 100.226 102.505
122 61 1 100.199 100.73 102.213
123 62 1 101.516 101.324 100.937
124 62 1 101.48 100.172 100.579
125 63 1 97.8236 101.888 97.2355
126 63 1 97.6571 100.956 102.436
127 64 1 101.58 100.481 98.0526
128 64 1 101.184 100.982 99.0465
129 65 1 99.1302 99.9936 99.5326
130 65 1 98.4304 100.867 100.028
131 66 1 99.2929 99.5892 100.578
132 66 1 98.2183 99.7106 100.149
133 67 1 100.569 99.8665 101.56
134 67 1 101.616 100.505 101.551
135 68 1 97.0574 102.894 98.3001
136 68 1 97.9276 102.993 97.5369
137 69 1 98.562 100.299 100.936
138 69 1 97.3461 100.096 100.648
139 70 1 99.5695 99.6059 97.4419
140 70 1 98.4085 99.3545 97.6418
141 71 1 99.8966 100.159 98.3064
142 71 1 100.54 101.162 98.1244
143 72 1 101.074 102.383 98.6971
144 72 1 101.552 101.517 98.1046
145 73 1 98.4737 98.636 98.4671
146 73 1 99.5703 98.4521 98.6831
147 74 1 97.229 99.273 99.8687
148 74 1 102.472 99.5729 100.675
149 75 1 101.973 99.6454 102.09
150 75 1 101.364 99.3084 101.165
151 76 1 98.6052 101.878 100.051
152 76 1 99.2626 101.073 99.3861
153 77 1 100.761 101.011 100.094
154 77 1 100.224 101.479 99.1179
155 78 1 102.02 101.979 99.2921
156 78 1 101.434 97.0507 99.5816
157 79 1 101.005 101.998 99.7142
158 79 1 100.347 102.855 99.252
159 80 1 97.2211 97.2533 100.725
160 80 1 97.4471 102.107 100.253
161 81 2 99.2797 100.255 102.527
162 82 2 102.353 97.3754 99.1049
163 83 2 101.663 102.35 100.466
164 84 2 98.5663 101.164 97.0355
165 85 2 100.748 97.7844 100.026
166 86 2 97.5956 97.8994 98.2246
167 87 2 102.715 97.8845 100.018
168 88 2 102.18 101.692 101.713
169 89 2 98.7354 98.8351 101.502
170 90 2 99.1695 102.478 100.719
171 91 2 102.137 99.1337 99.6424
172 92 2 98.1339 102.857 98.7289
173 93 2 99.6424 102.742 97.5529
174 94 2 100.534 100.867 101.085
175 95 2 100.355 98.6795 97.094
176 96 2 100.207 99.0672 98.106
177 97 2 97.009 98.2802 97.3795
178 98 2 101.275 99.0687 102.77
179 99 2 97.334 100.848 98.5939
180 100 2 101.548 97.2425 97.58
181 101 2 97.377 100.936 97.5283
182 102 2 98.1035 99.5282 99.084
183 103 2 101.808 101.117 99.9109
184 104 2 98.1806 101.54 101.074
185 105 2 102.107 102.544 98.2654
186 106 2 99.6979 97.8332 99.6662
187 107 2 99.1905 101.306 100.887
188 108 2 98.7209 98.0539 102.198
189 109 2 102.7 100.176 101.634
190 110 2 100.731 99.9512 97.4996
191 111 2 97.8791 100.036 98.1764
192 112 2 97.1384 102.255 101.426
193 113 2 98.9847 102.062 101.689
194 114 2 100.178 100.403 99.3096
195 115 2 99.8971 102.141 98.3901
196 116 2 99.3572 101.09 98.317
197 117 2 102.064 100.882 102.425
198 118 2 97.3457 102.645 102.564
199 119 2 100.471 97.5635 101.95
200 120 2 100.243 98.9598 100.917
ITEM: TIMESTEP
3000
ITEM: NUMBER OF ATOMS
200
ITEM: BOX BOUNDS pp pp pp
9.6940603774482284e+01 1.0305939622551772e+02
9.7031022597591175e+01 1.0296897740240883e+02
9.7031022597591175e+01 1.0296897740240883e+02
ITEM: ATOMS id mol type x y z
1 1 1 101.654 98.2184 99.6088
2 1 1 102.009 98.6197 100.714
3 2 1 101.263 102.602 102.466
4 2 1 100.939 102.156 97.5827
5 3 1 99.9274 100.633 97.373
6 3 1 100.188 99.7121 102.519
7 4 1 98.4928 99.7755 101.839
8 4 1 98.0988 100.068 102.933
9 5 1 99.6547 98.3403 101.693
10 5 1 99.5192 99.5159 101.625
11 6 1 97.3709 101.081 100.489
12 6 1 102.388 100.682 100.676
13 7 1 97.6165 97.6995 102.739
14 7 1 98.7507 97.3624 97.0184
15 8 1 102.609 100.184 99.7458
16 8 1 102.971 101.327 99.5822
17 9 1 102.56 98.9989 102.729
18 9 1 102.829 100.199 102.792
19 10 1 101.353 100.131 99.5067
20 10 1 102.224 100.737 98.8794
21 11 1 101.464 97.5264 98.4911
22 11 1 102.553 97.8705 98.1587
23 12 1 97.7846 97.8306 100.096
24 12 1 98.0911 97.831 101.227
25 13 1 97.9394 101.763 102.142
26 13 1 98.215 97.0035 102.084
27 14 1 101.386 102.315 101.458
28 14 1 100.207 102.623 101.47
29 15 1 97.0671 102.371 99.1965
30 15 1 97.9213 101.523 99.3903
31 16 1 102.395 102.688 102.305
32 16 1 102.389 102.793 101.12
33 17 1 97.2973 98.4899 100.747
34 17 1 97.5244 98.4726 101.887
35 18 1 100.501 97.9424 98.8481
36 18 1 100.886 99.0444 99.1276
37 19 1 102.292 101.012 97.4531
38 19 1 101.106 101.117 97.2095
39 20 1 101.002 98.1377 97.7234
40 20 1 100.604 97.0904 98.0564
41 21 1 99.2167 98.5797 97.6089
42 21 1 98.7468 97.5881 98.0569
43 22 1 97.2899 97.487 99.2503
44 22 1 98.5394 97.7024 99.3113
45 23 1 102.763 98.4648 99.0772
46 23 1 97.753 98.5287 99.2986
47 24 1 102.596 97.9668 101.22
48 24 1 101.687 97.4357 101.735
49 25 1 99.7802 101.71 100.162
50 25 1 99.6693 100.575 100.381
51 26 1 102.663 102.715 100.073
52 26 1 101.847 97.5932 100.436
53 27 1 101.979 102.028 97.1341
54 27 1 102.949 101.519 102.615
55 28 1 98.1481 99.0555 102.626
56 28 1 99.3264 99.0019 102.529
57 29 1 97.6606 102.01 98.3964
58 29 1 102.662 101.642 98.5544
59 30 1 99.4544 97.3449 98.7449
60 30 1 99.9754 97.9202 97.8366
61 31 1 102.02 99.7381 98.6659
62 31 1 101.382 99.1793 97.8608
63 32 1 98.6931 102.273 102.784
64 32 1 99.4253 101.442 102.38
65 33 1 99.0824 97.3954 101.478
66 33 1 100.049 97.7208 100.896
67 34 1 101.299 97.9921 102.58
68 34 1 100.475 97.2596 97.0044
69 35 1 99.5165 102.773 102.328
70 35 1 99.6464 97.9912 102.704
71 36 1 99.6154 101.701 97.4506
72 36 1 98.6545 102.331 97.9474
73 37 1 100.302 102.041 102.611
74 37 1 101.188 101.426 102.05
75 38 1 99.6396 100.551 101.481
76 38 1 98.607 100.951 101.901
77 39 1 98.7932 101.938 98.9202
78 39 1 99.1853 102.784 99.6376
79 40 1 100.111 102.807 100.222
80 40 1 100.999 97.2007 100.902
81 41 1 102.573 101.741 100.601
82 41 1 97.0264 101.173 101.504
83 42 1 98.1063 102.685 100.973
84 42 1 98.048 102.752 99.7721
85 43 1 101.114 98.2197 101.137
86 43 1 101.095 98.9637 100.189
87 44 1 100.449 99.8396 100.452
88 44 1 100.053 98.8466 99.914
89 45 1 100.689 98.8051 101.933
90 45 1 101.882 98.58 101.847
91 46 1 100.882 99.9027 98.5046
92 46 1 99.8776 99.4493 99.0724
93 47 1 98.298 98.6245 100.453
94 47 1 98.751 97.5083 100.408
95 48 1 97.4576 98.9204 98.2473
96 48 1 98.1902 98.2974 97.4568
97 49 1 97.3959 99.6817 102.161
98 49 1 102.819 99.0326 101.474
99 50 1 98.3137 101.231 98.0426
100 50 1 98.8997 100.307 97.6858
101 51 1 96.9743 99.7257 98.8479
102 51 1 97.5501 100.352 99.6257
103 52 1 102.746 100.148 97.9534
104 52 1 97.3427 99.3875 97.3025
105 53 1 98.9274 98.7761 99.5293
106 53 1 99.3307 98.3911 100.578
107 54 1 100.686 102.001 100.693
108 54 1 100.037 101.616 101.592
109 55 1 97.195 97.4345 101.795
110 55 1 102.434 97.8861 102.456
111 56 1 98.9828 99.677 98.5642
112 56 1 98.3652 100.643 98.9364
113 57 1 101.951 99.8115 97.2484
114 57 1 102.503 99.0864 97.9872
115 58 1 102.947 102.023 97.6372
116 58 1 102.757 97.1882 97.2845
117 59 1 101.771 98.546 98.6169
118 59 1 101.961 98.3601 97.4089
119 60 1 97.7557 99.3336 101.22
120 60 1 97.787 100.496 101.449
121 61 1 101.217 100.175 102.45
122 61 1 100.303 100.846 102.303
123 62 1 101.53 101.333 100.958
124 62 1 101.424 100.227 100.531
125 63 1 97.8128 101.793 97.2652
126 63 1 97.6315 100.819 102.452
127 64 1 101.6 100.474 98.0353
128 64 1 101.129 101.089 98.9839
129 65 1 99.0217 100.005 99.5959
130 65 1 98.3582 100.852 100.098
131 66 1 99.3215 99.4829 100.529
132 66 1 98.2 99.6043 100.119
133 67 1 100.53 99.8958 101.534
134 67 1 101.629 100.449 101.501
135 68 1 97.0203 102.92 98.3038
136 68 1 97.8517 102.916 97.484
137 69 1 98.6039 100.21 100.895
138 69 1 97.3406 100.039 100.609
139 70 1 99.615 99.5314 97.4917
140 70 1 98.4309 99.3163 97.7125
141 71 1 99.877 100.16 98.2909
142 71 1 100.457 101.201 98.138
143 72 1 101.02 102.289 98.6574
144 72 1 101.651 101.499 98.1126
145 73 1 98.4482 98.5168 98.4969
146 73 1 99.594 98.4875 98.762
147 74 1 97.1322 99.2764 99.8364
148 74 1 102.387 99.5842 100.657
149 75 1 102.055 99.6633 102.102
150 75 1 101.336 99.3023 101.183
151 76 1 98.644 101.937 100.047
152 76 1 99.1975 101.085 99.4559
153 77 1 100.722 101.076 100.112
154 77 1 100.125 101.514 99.1598
155 78 1 102.086 102.155 99.3204
156 78 1 101.285 97.1128 99.4671
157 79 1 100.954 102.01 99.6604
158 79 1 100.27 102.843 99.1686
159 80 1 97.2079 97.2938 100.76
160 80 1 97.414 102.134 100.327
161 81 2 99.2718 100.255 102.555
162 82 2 102.294 97.3347 99.1138
163 83 2 101.715 102.382 100.381
164 84 2 98.6238 101.125 97.0097
165 85 2 100.74 97.8627 100.069
166 86 2 97.6096 97.869 98.2172
167 87 2 102.742 97.9286 99.9932
168 88 2 102.309 101.745 101.771
169 89 2 98.7262 98.7888 101.509
170 90 2 99.2515 102.533 100.788
171 91 2 102.065 99.155 99.6638
172 92 2 98.0623 102.909 98.6521
173 93 2 99.6534 102.754 97.4881
174 94 2 100.583 100.876 101.124
175 95 2 100.343 98.6683 97.0921
176 96 2 100.299 98.96 98.1301
177 97 2 97.0606 98.3273 97.4065
178 98 2 101.315 99.0394 102.803
179 99 2 97.2708 100.894 98.6273
180 100 2 101.593 97.2189 97.4281
181 101 2 97.3821 100.904 97.5761
182 102 2 98.0225 99.5299 99.0543
183 103 2 101.814 101.19 99.8843
184 104 2 98.0865 101.543 101.082
185 105 2 102.129 102.597 98.1685
186 106 2 99.672 97.8 99.7052
187 107 2 99.1072 101.278 100.927
188 108 2 98.6218 98.0726 102.247
189 109 2 102.769 100.213 101.626
190 110 2 100.754 99.9631 97.4572
191 111 2 97.8854 100.107 98.1737
192 112 2 97.1322 102.278 101.502
193 113 2 98.859 102.067 101.637
194 114 2 100.187 100.424 99.2976
195 115 2 99.8471 102.219 98.3869
196 116 2 99.36 101.161 98.3475
197 117 2 102.108 100.838 102.324
198 118 2 97.3169 102.527 102.582
199 119 2 100.535 97.6676 101.944
200 120 2 100.237 98.8951 100.978
ITEM: TIMESTEP
4000
ITEM: NUMBER OF ATOMS
200
ITEM: BOX BOUNDS pp pp pp
9.6909856331239169e+01 1.0309014366876083e+02
9.7031022597591175e+01 1.0296897740240883e+02
9.7031022597591175e+01 1.0296897740240883e+02
ITEM: ATOMS id mol type x y z
1 1 1 101.651 98.1508 99.5305
2 1 1 102.012 98.575 100.605
3 2 1 101.272 102.704 102.467
4 2 1 100.898 102.138 97.5721
5 3 1 99.9262 100.598 97.3606
6 3 1 100.185 99.6839 102.518
7 4 1 98.4003 99.8109 101.924
8 4 1 98.0888 100.128 97.0545
9 5 1 99.652 98.3365 101.723
10 5 1 99.4669 99.4943 101.662
11 6 1 97.2957 101.119 100.424
12 6 1 102.43 100.692 100.762
13 7 1 97.6487 97.7223 102.748
14 7 1 98.7983 97.35 102.941
15 8 1 102.655 100.235 99.7989
16 8 1 102.951 101.346 99.5183
17 9 1 102.564 99.0521 102.728
18 9 1 102.866 100.234 102.766
19 10 1 101.429 100.108 99.4592
20 10 1 102.251 100.73 98.9074
21 11 1 101.575 97.5482 98.5496
22 11 1 102.712 97.9948 98.1834
23 12 1 97.7654 97.7862 100.088
24 12 1 98.1064 97.939 101.228
25 13 1 97.9045 101.827 102.121
26 13 1 98.2186 97.0759 102.063
27 14 1 101.154 102.191 101.538
28 14 1 100.031 102.642 101.379
29 15 1 103.014 102.318 99.0941
30 15 1 97.7742 101.593 99.3878
31 16 1 102.379 102.801 102.345
32 16 1 102.34 102.788 101.1
33 17 1 97.273 98.4859 100.79
34 17 1 97.4467 98.4982 101.992
35 18 1 100.585 97.984 98.8459
36 18 1 101.077 99.0079 99.0811
37 19 1 102.26 101.056 97.3297
38 19 1 101.031 101.044 97.2121
39 20 1 101.053 98.1316 97.8465
40 20 1 100.615 97.0637 98.1395
41 21 1 99.2497 98.5447 97.6265
42 21 1 98.8561 97.5214 98.0645
43 22 1 97.3715 97.342 99.2616
44 22 1 98.5641 97.68 99.2416
45 23 1 102.817 98.6311 99.0712
46 23 1 97.777 98.4339 99.2874
47 24 1 102.602 97.9774 101.227
48 24 1 101.683 97.4359 101.742
49 25 1 99.7356 101.718 100.097
50 25 1 99.6588 100.579 100.356
51 26 1 102.599 102.703 100.026
52 26 1 101.797 97.5709 100.425
53 27 1 101.982 102.082 97.1103
54 27 1 102.967 101.669 102.545
55 28 1 98.073 99.0573 102.625
56 28 1 99.2152 99.0196 102.551
57 29 1 97.5749 101.962 98.3475
58 29 1 102.677 101.484 98.2845
59 30 1 99.5944 97.3587 98.7692
60 30 1 100.005 97.8979 97.8485
61 31 1 102.071 99.7185 98.7018
62 31 1 101.477 99.1619 97.8562
63 32 1 98.7219 102.261 102.752
64 32 1 99.383 101.401 102.346
65 33 1 99.1259 97.3764 101.514
66 33 1 100.078 97.758 100.864
67 34 1 101.291 98.0297 102.569
68 34 1 100.464 97.3094 102.991
69 35 1 99.5979 102.783 102.35
70 35 1 99.6522 97.9457 102.731
71 36 1 99.5808 101.655 97.4042
72 36 1 98.6734 102.219 97.9034
73 37 1 100.31 102.062 102.613
74 37 1 101.169 101.359 102.123
75 38 1 99.6121 100.498 101.498
76 38 1 98.5818 100.94 101.852
77 39 1 98.644 101.793 98.8915
78 39 1 99.1641 102.698 99.5234
79 40 1 100.013 102.765 100.254
80 40 1 100.961 97.1265 100.908
81 41 1 102.584 101.794 100.692
82 41 1 96.8876 101.192 101.57
83 42 1 97.9647 102.684 101.071
84 42 1 98.1446 102.773 99.8841
85 43 1 101.067 98.2067 101.091
86 43 1 101.12 98.9483 100.15
87 44 1 100.45 99.8552 100.392
88 44 1 100.079 98.7816 99.9523
89 45 1 100.649 98.8799 101.96
90 45 1 101.818 98.569 101.813
91 46 1 100.914 99.854 98.5388
92 46 1 99.9225 99.4277 99.1519
93 47 1 98.2785 98.6383 100.394
94 47 1 98.7389 97.5343 100.421
95 48 1 97.4593 98.8657 98.248
96 48 1 98.2567 98.2844 97.4614
97 49 1 97.3221 99.6473 102.19