ITEM: TIMESTEP
0
ITEM: NUMBER OF ATOMS
200
ITEM: BOX BOUNDS pp pp pp
9.7031819004288778e+01 1.0296818099571122e+02
9.7031819004288778e+01 1.0296818099571122e+02
9.7031819004288778e+01 1.0296818099571122e+02
ITEM: ATOMS id mol type x y z
1 1 1 102.108 97.7359 100.74
2 1 1 102.232 98.0616 99.5999
3 2 1 98.1461 99.4678 97.983
4 2 1 98.5525 99.5987 102.835
5 3 1 98.8813 99.8709 98.8721
6 3 1 98.8779 100.253 97.7693
7 4 1 100.188 100.254 102.01
8 4 1 100.152 101.353 102.436
9 5 1 101.111 99.6497 101.73
10 5 1 100.021 99.2085 102.026
11 6 1 97.9328 97.7836 101.562
12 6 1 98.7112 97.8319 102.456
13 7 1 97.1732 102.407 97.214
14 7 1 97.8192 97.4637 102.947
15 8 1 102.471 99.7447 100.533
16 8 1 102.338 100.731 99.9004
17 9 1 101.641 101.049 97.3464
18 9 1 102.172 101.948 102.713
19 10 1 97.3945 100.132 99.8305
20 10 1 97.3561 101.19 99.3699
21 11 1 102.502 102.745 98.2122
22 11 1 97.7722 102.87 97.9689
23 12 1 102.927 97.385 101.298
24 12 1 102.881 102.164 101.195
25 13 1 99.1582 101.644 102.728
26 13 1 99.2685 102.854 102.604
27 14 1 99.5858 102.129 101.849
28 14 1 99.7872 97.3188 101.555
29 15 1 98.1907 101.051 98.6466
30 15 1 97.6745 101.801 97.9557
31 16 1 101.728 97.2105 101.513
32 16 1 101.344 102.643 102.478
33 17 1 97.0376 99.0083 102.115
34 17 1 97.1325 97.8339 102.293
35 18 1 99.9581 99.606 99.1485
36 18 1 101.096 99.4377 98.8255
37 19 1 102.542 102.782 102.144
38 19 1 101.915 101.972 101.635
39 20 1 101.223 98.4415 98.4543
40 20 1 100.398 97.593 98.3475
41 21 1 98.5936 98.5902 97.3632
42 21 1 97.7851 98.0117 98.049
43 22 1 99.9181 97.391 97.336
44 22 1 99.7265 98.0666 102.33
45 23 1 97.3364 97.0369 98.9108
46 23 1 98.4494 97.4428 98.6442
47 24 1 97.0834 98.4412 101.051
48 24 1 102.045 98.7527 100.395
49 25 1 100.43 102.081 99.7789
50 25 1 101.414 101.478 99.5429
51 26 1 98.0431 97.2475 99.6243
52 26 1 97.0607 97.5616 100.181
53 27 1 100.383 102.449 97.9695
54 27 1 101.449 97.0631 98.271
55 28 1 97.7548 102.815 100.863
56 28 1 98.6406 97.0459 101.697
57 29 1 97.2032 100.85 98.1914
58 29 1 102.305 101.171 98.9288
59 30 1 98.6125 102.227 98.3118
60 30 1 98.5836 101.253 97.6339
61 31 1 97.315 98.0245 99.2185
62 31 1 102.286 97.758 98.5751
63 32 1 99.5905 99.8231 102.882
64 32 1 99.0346 98.864 102.282
65 33 1 101.444 98.8939 97.3837
66 33 1 100.762 98.4267 102.426
67 34 1 98.5685 98.5835 98.4967
68 34 1 99.4719 98.1968 97.8412
69 35 1 97.8481 101.632 101.215
70 35 1 102.723 101.041 101.377
71 36 1 98.813 100.639 102.683
72 36 1 97.9739 101.431 102.676
73 37 1 99.4844 101.999 97.7192
74 37 1 100.565 101.424 97.5216
75 38 1 98.1112 100.71 101.703
76 38 1 99.2338 101.101 101.744
77 39 1 99.4725 102.311 100.008
78 39 1 100.27 97.2164 100.252
79 40 1 100.687 98.5682 100.482
80 40 1 100.777 97.4932 101.097
81 41 1 100.666 102.201 101.739
82 41 1 100.582 97.3473 102.211
83 42 1 98.9265 101.903 100.967
84 42 1 98.0631 101.498 100.195
85 43 1 101.271 98.5687 99.5206
86 43 1 101.892 99.5837 99.6723
87 44 1 100.16 100.257 100.151
88 44 1 99.8389 99.0825 100.074
89 45 1 99.8185 98.8318 97.0896
90 45 1 100.753 99.4752 102.695
91 46 1 102.086 100.523 98.1735
92 46 1 102.662 99.976 99.0301
93 47 1 98.3346 97.7137 100.566
94 47 1 99.2443 97.5947 99.8276
95 48 1 97.7808 100.128 98.815
96 48 1 97.6114 98.971 98.7973
97 49 1 97.5809 99.4248 100.633
98 49 1 97.593 100.621 100.796
99 50 1 97.5148 99.5759 102.922
100 50 1 97.9996 98.6176 102.304
101 51 1 102.581 100.365 97.2959
102 51 1 97.8705 100.473 97.3746
103 52 1 102.177 101.003 102.25
104 52 1 97.149 101.757 102.113
105 53 1 99.6734 98.174 100.6
106 53 1 99.214 97.0927 100.753
107 54 1 101.123 102.46 100.783
108 54 1 100.797 101.326 100.507
109 55 1 101.69 98.9619 102.329
110 55 1 102.441 99.3423 97.2263
111 56 1 102.92 99.9433 101.421
112 56 1 97.9959 99.6545 101.938
113 57 1 100.569 98.2729 97.5633
114 57 1 101.734 97.9228 97.6832
115 58 1 102.916 97.5816 97.6296
116 58 1 102.37 98.362 102.892
117 59 1 101.178 97.5351 99.165
118 59 1 100.042 97.0798 99.2054
119 60 1 99.3059 99.211 101.209
120 60 1 98.1953 98.793 101.271
121 61 1 101.212 101.251 101.465
122 61 1 101.938 101.531 100.601
123 62 1 97.331 102.388 99.8984
124 62 1 97.047 101.988 98.7508
125 63 1 97.1305 99.7169 98.0468
126 63 1 101.916 99.449 98.1854
127 64 1 100.541 100.409 97.1894
128 64 1 101.582 99.9424 97.2943
129 65 1 98.4353 100.622 99.6094
130 65 1 98.681 100.865 100.763
131 66 1 100.256 99.4641 100.973
132 66 1 100.266 98.3503 101.438
133 67 1 100.706 100.419 101.068
134 67 1 101.844 100.353 101.348
135 68 1 98.4765 102.458 100.234
136 68 1 98.9549 102.715 99.2161
137 69 1 100.162 101.312 101.335
138 69 1 99.5821 100.317 101.026
139 70 1 100.171 98.6916 98.651
140 70 1 99.198 98.9228 99.2913
141 71 1 99.8095 100.181 98.2443
142 71 1 99.2239 101.179 98.4189
143 72 1 100.85 102.355 98.8838
144 72 1 101.323 101.307 98.4183
145 73 1 98.4119 98.228 99.4476
146 73 1 99.3817 97.9283 98.8394
147 74 1 97.685 98.4558 100.148
148 74 1 98.772 98.7911 100.357
149 75 1 102.265 99.8876 102.3
150 75 1 102.239 99.155 101.391
151 76 1 100.542 100.966 99.4611
152 76 1 101.545 100.409 99.1449
153 77 1 100.282 101.288 98.5106
154 77 1 99.5694 100.643 99.2846
155 78 1 101.875 102.136 98.8103
156 78 1 102.334 97.0446 99.4137
157 79 1 101.428 102.531 99.7767
158 79 1 101.244 97.7055 100.193
159 80 1 100.925 97.2308 97.3857
160 80 1 101.405 102.106 97.6024
161 81 2 99.0656 99.9751 101.915
162 82 2 98.0344 102.052 99.2113
163 83 2 102.253 102.665 100.545
164 84 2 99.6741 100.889 97.5055
165 85 2 100.873 99.5795 99.8429
166 86 2 98.7396 97.4773 97.5281
167 87 2 102.222 98.1464 101.811
168 88 2 100.206 102.377 102.852
169 89 2 99.0537 98.0898 101.452
170 90 2 100.032 102.265 100.901
171 91 2 102.899 99.064 99.6787
172 92 2 98.9684 101.547 99.4179
173 93 2 98.4504 102.382 97.2406
174 94 2 101.367 100.522 100.267
175 95 2 99.3908 99.2523 98.0635
176 96 2 102.197 98.8842 98.956
177 97 2 102.708 98.5874 98.0777
178 98 2 101.24 100.495 102.319
179 99 2 102.967 101.302 97.1074
180 100 2 99.3649 97.0363 98.2142
181 101 2 102.029 102.941 97.2618
182 102 2 98.2171 99.4296 99.6888
183 103 2 102.396 101.896 99.7451
184 104 2 101.183 101.571 102.472
185 105 2 102.383 101.647 97.8602
186 106 2 100.286 98.075 99.5333
187 107 2 99.6515 101.266 100.257
188 108 2 97.632 102.697 102.039
189 109 2 98.4832 99.8537 100.925
190 110 2 100.598 99.4129 97.8377
191 111 2 97.326 100.562 102.327
192 112 2 101.597 97.7646 102.559
193 113 2 98.5485 102.036 102.032
194 114 2 100.903 100.36 98.1587
195 115 2 99.7146 102.086 98.8377
196 116 2 99.1585 99.8934 100.043
197 117 2 97.4592 98.5835 97.25
198 118 2 97.0729 101.437 100.416
199 119 2 101.328 98.5005 101.346
200 120 2 101.401 99.5237 100.744
ITEM: TIMESTEP
1000
ITEM: NUMBER OF ATOMS
200
ITEM: BOX BOUNDS pp pp pp
9.7001988289345832e+01 1.0299801171065417e+02
9.7031819004288778e+01 1.0296818099571122e+02
9.7031819004288778e+01 1.0296818099571122e+02
ITEM: ATOMS id mol type x y z
1 1 1 102.178 97.7695 100.742
2 1 1 102.29 98.0597 99.6442
3 2 1 98.2065 99.4589 98.0413
4 2 1 98.513 99.6204 102.842
5 3 1 98.7647 99.9065 98.8675
6 3 1 98.8805 100.252 97.7661
7 4 1 100.146 100.281 101.951
8 4 1 100.129 101.332 102.435
9 5 1 101.071 99.5878 101.735
10 5 1 99.99 99.2052 102.054
11 6 1 97.9141 97.7635 101.494
12 6 1 98.6731 97.8591 102.419
13 7 1 97.1121 102.398 97.1667
14 7 1 97.8723 97.4215 102.903
15 8 1 102.472 99.8062 100.531
16 8 1 102.337 100.77 100.003
17 9 1 101.632 101.012 97.3239
18 9 1 102.191 101.951 102.736
19 10 1 97.3356 100.132 99.895
20 10 1 97.372 101.241 99.4176
21 11 1 102.594 102.714 98.1069
22 11 1 97.8338 102.819 97.9431
23 12 1 102.945 97.4129 101.335
24 12 1 102.889 102.23 101.203
25 13 1 99.1955 101.67 102.703
26 13 1 99.2539 102.845 102.521
27 14 1 99.6014 102.133 101.837
28 14 1 99.7718 97.3122 101.553
29 15 1 98.1589 101.033 98.6612
30 15 1 97.7303 101.786 97.9004
31 16 1 101.748 97.1698 101.501
32 16 1 101.367 102.619 102.472
33 17 1 97.016 99.0372 102.126
34 17 1 97.1618 97.8622 102.272
35 18 1 99.9486 99.6444 99.1535
36 18 1 101.09 99.4293 98.7859
37 19 1 102.588 102.825 102.201
38 19 1 101.914 102.035 101.657
39 20 1 101.225 98.4358 98.4621
40 20 1 100.449 97.5671 98.3229
41 21 1 98.6826 98.5976 97.3736
42 21 1 97.7871 98.1091 98.0516
43 22 1 99.9205 97.3401 97.3459
44 22 1 99.7498 98.05 102.366
45 23 1 97.3047 97.0816 98.8544
46 23 1 98.4151 97.5146 98.6541
47 24 1 97.0737 98.4805 101.098
48 24 1 102.1 98.7653 100.381
49 25 1 100.495 102.167 99.834
50 25 1 101.463 101.499 99.602
51 26 1 98.0555 97.2719 99.6045
52 26 1 97.1064 97.5282 100.236
53 27 1 100.432 102.445 97.9847
54 27 1 101.463 97.0404 98.292
55 28 1 97.7555 102.789 100.865
56 28 1 98.6471 96.9999 101.644
57 29 1 97.1447 100.81 98.2031
58 29 1 102.342 101.139 98.9962
59 30 1 98.6712 102.189 98.2921
60 30 1 98.5785 101.265 97.5801
61 31 1 97.2871 98.026 99.2578
62 31 1 102.265 97.7759 98.6223
63 32 1 99.5594 99.8261 102.847
64 32 1 99.0325 98.8697 102.287
65 33 1 101.446 98.8131 97.3757
66 33 1 100.796 98.4404 102.357
67 34 1 98.5978 98.5193 98.486
68 34 1 99.567 98.1691 97.8881
69 35 1 97.7902 101.582 101.261
70 35 1 102.694 101.07 101.359
71 36 1 98.809 100.631 102.659
72 36 1 97.9569 101.38 102.632
73 37 1 99.5656 101.967 97.7212
74 37 1 100.607 101.431 97.4817
75 38 1 98.114 100.694 101.753
76 38 1 99.2188 101.059 101.776
77 39 1 99.4981 102.358 99.9854
78 39 1 100.228 97.3028 100.295
79 40 1 100.694 98.5429 100.523
80 40 1 100.764 97.5002 101.205
81 41 1 100.695 102.248 101.722
82 41 1 100.533 97.3451 102.272
83 42 1 98.9102 101.897 101.014
84 42 1 98.076 101.477 100.222
85 43 1 101.368 98.528 99.62
86 43 1 101.876 99.6323 99.6791
87 44 1 100.139 100.293 100.128
88 44 1 99.8644 99.0952 100.127
89 45 1 99.7959 98.8068 97.1199
90 45 1 100.75 99.4504 102.738
91 46 1 102.059 100.545 98.1921
92 46 1 102.636 99.9246 98.9786
93 47 1 98.3442 97.693 100.526
94 47 1 99.2343 97.6194 99.8178
95 48 1 97.6936 100.134 98.8433
96 48 1 97.6625 98.9336 98.8072
97 49 1 97.5069 99.4162 100.67
98 49 1 97.5577 100.577 100.821
99 50 1 97.4408 99.602 102.893
100 50 1 97.991 98.6491 102.317
101 51 1 102.618 100.338 97.3291
102 51 1 97.8174 100.483 97.3993
103 52 1 102.124 100.988 102.277
104 52 1 97.0601 101.782 102.121
105 53 1 99.627 98.1796 100.624
106 53 1 99.1743 97.0649 100.733
107 54 1 101.125 102.467 100.718
108 54 1 100.791 101.383 100.505
109 55 1 101.746 98.9379 102.282
110 55 1 102.496 99.2947 97.1638
111 56 1 102.951 99.9355 101.442
112 56 1 98.0053 99.6066 101.901
113 57 1 100.583 98.2106 97.4904
114 57 1 101.744 97.9074 97.7155
115 58 1 103.047 97.5593 97.6176
116 58 1 102.395 98.2797 102.932
117 59 1 101.125 97.5773 99.1643
118 59 1 100.061 97.126 99.2519
119 60 1 99.3245 99.1561 101.197
120 60 1 98.1529 98.755 101.206
121 61 1 101.242 101.277 101.45
122 61 1 101.966 101.52 100.65
123 62 1 97.3021 102.445 99.8571
124 62 1 97.0172 101.989 98.7265
125 63 1 97.1515 99.6081 98.0302
126 63 1 101.973 99.4786 98.1462
127 64 1 100.489 100.407 97.0965
128 64 1 101.615 99.9507 97.2557
129 65 1 98.3343 100.606 99.6697
130 65 1 98.6531 100.827 100.833
131 66 1 100.316 99.4482 100.971
132 66 1 100.227 98.3677 101.464
133 67 1 100.721 100.414 101.048
134 67 1 101.869 100.32 101.304
135 68 1 98.479 102.42 100.176
136 68 1 98.9833 102.748 99.1528
137 69 1 100.129 101.25 101.361
138 69 1 99.5886 100.246 101.002
139 70 1 100.214 98.6706 98.7109
140 70 1 99.1833 98.8801 99.3188
141 71 1 99.833 100.223 98.3128
142 71 1 99.1739 101.206 98.4288
143 72 1 100.898 102.308 98.9092
144 72 1 101.293 101.355 98.3191
145 73 1 98.3908 98.2196 99.4642
146 73 1 99.4353 97.9281 98.8736
147 74 1 97.6552 98.4094 100.239
148 74 1 98.7955 98.7716 100.32
149 75 1 102.27 99.9179 102.274
150 75 1 102.262 99.1068 101.385
151 76 1 100.492 101.1 99.492
152 76 1 101.428 100.465 99.1294
153 77 1 100.227 101.258 98.4806
154 77 1 99.5049 100.689 99.2804
155 78 1 101.93 102.168 98.8224
156 78 1 102.441 97.0529 99.4248
157 79 1 101.486 102.626 99.7162
158 79 1 101.227 97.6676 100.256
159 80 1 100.961 97.2194 97.3778
160 80 1 101.44 102.12 97.5634
161 81 2 99.0375 99.9455 101.876
162 82 2 98.0356 102.122 99.1244
163 83 2 102.266 102.662 100.519
164 84 2 99.6686 100.905 97.5169
165 85 2 100.869 99.5562 99.8452
166 86 2 98.7542 97.5342 97.5445
167 87 2 102.262 98.1595 101.853
168 88 2 100.249 102.395 102.82
169 89 2 98.981 98.084 101.448
170 90 2 100.039 102.249 100.886
171 91 2 102.954 99.0641 99.7369
172 92 2 98.9549 101.603 99.4202
173 93 2 98.5394 102.358 97.2168
174 94 2 101.372 100.495 100.229
175 95 2 99.3928 99.284 98.1321
176 96 2 102.179 98.8594 98.9815
177 97 2 102.716 98.5511 98.0929
178 98 2 101.223 100.446 102.271
179 99 2 102.966 101.285 97.1115
180 100 2 99.3944 97.0251 98.1854
181 101 2 102.049 103.004 97.2738
182 102 2 98.1514 99.3927 99.6858
183 103 2 102.432 101.925 99.7547
184 104 2 101.162 101.577 102.498
185 105 2 102.354 101.577 97.8923
186 106 2 100.285 98.1867 99.6271
187 107 2 99.6018 101.289 100.307
188 108 2 97.6435 102.696 102.051
189 109 2 98.4715 99.7987 100.889
190 110 2 100.502 99.3785 97.7887
191 111 2 97.1953 100.611 102.309
192 112 2 101.59 97.757 102.506
193 113 2 98.5234 101.996 102.022
194 114 2 100.878 100.353 98.1045
195 115 2 99.7371 102.111 98.8453
196 116 2 99.1106 99.8464 100.009
197 117 2 97.3792 98.5921 97.2037
198 118 2 97.0643 101.535 100.447
199 119 2 101.367 98.5377 101.304
200 120 2 101.412 99.5085 100.722
ITEM: TIMESTEP
2000
ITEM: NUMBER OF ATOMS
200
ITEM: BOX BOUNDS pp pp pp
9.6971857770733465e+01 1.0302814222926654e+02
9.7031819004288778e+01 1.0296818099571122e+02
9.7031819004288778e+01 1.0296818099571122e+02
ITEM: ATOMS id mol type x y z
1 1 1 102.143 97.7905 100.77
2 1 1 102.268 98.068 99.619
3 2 1 98.1193 99.4685 97.9371
4 2 1 98.4723 99.59 102.808
5 3 1 98.8695 99.7621 98.864
6 3 1 98.8537 100.234 97.7376
7 4 1 100.17 100.249 101.95
8 4 1 100.123 101.313 102.446
9 5 1 101.108 99.6031 101.725
10 5 1 99.992 99.2259 102
11 6 1 97.7988 97.7969 101.529
12 6 1 98.6367 97.8159 102.4
13 7 1 97.0884 102.397 97.1377
14 7 1 97.8449 97.4178 102.909
15 8 1 102.511 99.729 100.526
16 8 1 102.37 100.693 99.9329
17 9 1 101.655 101.015 97.3554
18 9 1 102.226 101.937 102.772
19 10 1 97.2988 100.132 99.9623
20 10 1 97.3412 101.139 99.3623
21 11 1 102.615 102.698 98.1442
22 11 1 97.7755 102.854 97.9098
23 12 1 102.923 97.3742 101.332
24 12 1 102.987 102.149 101.186
25 13 1 99.1912 101.683 102.736
26 13 1 99.2876 102.877 102.495
27 14 1 99.6208 102.09 101.854
28 14 1 99.791 97.3126 101.545
29 15 1 98.1825 101.012 98.6704
30 15 1 97.624 101.81 97.9714
31 16 1 101.76 97.1398 101.477
32 16 1 101.399 102.615 102.475
33 17 1 96.907 99.029 102.207
34 17 1 97.0707 97.803 102.326
35 18 1 99.929 99.6106 99.1915
36 18 1 101.111 99.4654 98.8434
37 19 1 102.529 102.825 102.171
38 19 1 102.008 101.938 101.638
39 20 1 101.217 98.4827 98.4591
40 20 1 100.469 97.575 98.3258
41 21 1 98.6934 98.6807 97.3546
42 21 1 97.8558 98.1071 97.9669
43 22 1 99.9286 97.3353 97.3455
44 22 1 99.669 98.0063 102.335
45 23 1 97.3381 97.0596 98.8133
46 23 1 98.4061 97.5435 98.6189
47 24 1 96.9623 98.4312 101.012
48 24 1 102.02 98.7524 100.379
49 25 1 100.516 102.21 99.88
50 25 1 101.497 101.506 99.6519
51 26 1 98.0201 97.2861 99.5765
52 26 1 97.0559 97.5648 100.235
53 27 1 100.472 102.446 97.9768
54 27 1 101.498 97.0368 98.3261
55 28 1 97.713 102.793 100.851
56 28 1 98.6075 97.0299 101.614
57 29 1 97.1087 100.776 98.2197
58 29 1 102.352 101.123 99.0046
59 30 1 98.6298 102.163 98.2677
60 30 1 98.5514 101.249 97.5439
61 31 1 97.2162 98.0041 99.2137
62 31 1 102.295 97.711 98.5881
63 32 1 99.528 99.8388 102.803
64 32 1 99.0429 98.87 102.225
65 33 1 101.449 98.9157 97.3792
66 33 1 100.737 98.4631 102.394
67 34 1 98.6408 98.6388 98.487
68 34 1 99.5084 98.1508 97.8556
69 35 1 97.8456 101.607 101.203
70 35 1 102.821 101.074 101.413
71 36 1 98.775 100.641 102.666
72 36 1 97.9129 101.453 102.621
73 37 1 99.5514 101.948 97.7354
74 37 1 100.624 101.397 97.5484
75 38 1 98.1022 100.749 101.793
76 38 1 99.1935 101.11 101.778
77 39 1 99.504 102.332 99.969
78 39 1 100.218 97.3147 100.299
79 40 1 100.754 98.5906 100.512
80 40 1 100.782 97.5082 101.162
81 41 1 100.709 102.177 101.752
82 41 1 100.507 97.3217 102.277
83 42 1 98.9277 101.865 100.982
84 42 1 98.1024 101.482 100.116
85 43 1 101.348 98.5787 99.5723
86 43 1 101.933 99.6525 99.64
87 44 1 100.174 100.318 100.082
88 44 1 99.8158 99.1368 100.163
89 45 1 99.8264 98.8096 97.0554
90 45 1 100.72 99.4798 102.696
91 46 1 102.09 100.535 98.1805
92 46 1 102.724 99.9855 99.0165
93 47 1 98.2936 97.7169 100.561
94 47 1 99.1921 97.6416 99.8383
95 48 1 97.753 100.088 98.8526
96 48 1 97.5499 98.906 98.733
97 49 1 97.4753 99.3957 100.711
98 49 1 97.5844 100.56 100.879
99 50 1 97.4498 99.6463 102.881
100 50 1 97.9457 98.6381 102.385
101 51 1 102.649 100.332 97.3184
102 51 1 97.8177 100.495 97.4118
103 52 1 102.221 100.975 102.275
104 52 1 97.0799 101.806 102.143
105 53 1 99.6721 98.1788 100.642
106 53 1 99.1781 97.0929 100.744
107 54 1 101.197 102.447 100.803
108 54 1 100.776 101.371 100.511
109 55 1 101.711 98.9732 102.288
110 55 1 102.444 99.3006 97.247
111 56 1 102.921 99.9743 101.449
112 56 1 97.8898 99.6827 101.865
113 57 1 100.621 98.2156 97.5298
114 57 1 101.716 97.9614 97.6782
115 58 1 103.054 97.6142 97.6575
116 58 1 102.352 98.3084 102.868
117 59 1 101.119 97.5529 99.1911
118 59 1 100.042 97.1073 99.2498
119 60 1 99.3148 99.1787 101.149
120 60 1 98.2043 98.7333 101.276
121 61 1 101.207 101.29 101.49
122 61 1 102.004 101.405 100.69
123 62 1 97.3341 102.451 99.893
124 62 1 96.9769 101.964 98.8155
125 63 1 97.0628 99.5848 98.0445
126 63 1 101.919 99.5258 98.1624
127 64 1 100.485 100.412 97.1651
128 64 1 101.589 99.9631 97.2162
129 65 1 98.4049 100.56 99.6689
130 65 1 98.6356 100.824 100.827
131 66 1 100.314 99.4948 101.01
132 66 1 100.273 98.3768 101.484
133 67 1 100.759 100.461 101.084
134 67 1 101.927 100.412 101.296
135 68 1 98.4595 102.496 100.216
136 68 1 98.9359 102.77 99.1651
137 69 1 100.14 101.285 101.331
138 69 1 99.579 100.29 100.967
139 70 1 100.194 98.6286 98.6187
140 70 1 99.2994 98.814 99.3401
141 71 1 99.8666 100.243 98.3249
142 71 1 99.1866 101.206 98.4021
143 72 1 100.889 102.282 98.9357
144 72 1 101.371 101.317 98.4176
145 73 1 98.3346 98.259 99.4028
146 73 1 99.377 97.8822 98.8297
147 74 1 97.6373 98.4569 100.17
148 74 1 98.7716 98.6908 100.351
149 75 1 102.243 99.9427 102.277
150 75 1 102.264 99.1351 101.43
151 76 1 100.515 101.145 99.4717
152 76 1 101.483 100.506 99.1627
153 77 1 100.243 101.264 98.5087
154 77 1 99.5547 100.671 99.2634
155 78 1 101.934 102.107 98.8174
156 78 1 102.483 97.0086 99.3705
157 79 1 101.507 102.592 99.7232
158 79 1 101.238 97.7072 100.261
159 80 1 100.967 97.2007 97.3757
160 80 1 101.496 102.07 97.6041
161 81 2 98.9929 99.9943 101.825
162 82 2 98.0388 102.087 99.1623
163 83 2 102.356 102.67 100.521
164 84 2 99.6258 100.907 97.5012
165 85 2 100.85 99.5858 99.842
166 86 2 98.7625 97.4653 97.4813
167 87 2 102.251 98.1638 101.835
168 88 2 100.291 102.333 102.837
169 89 2 99.0117 98.0889 101.426
170 90 2 100.047 102.287 100.914
171 91 2 102.95 99.0421 99.7076
172 92 2 98.9619 101.586 99.3618
173 93 2 98.4947 102.362 97.2046
174 94 2 101.358 100.502 100.228
175 95 2 99.4781 99.2887 98.0764
176 96 2 102.195 98.8843 98.9454
177 97 2 102.674 98.5271 98.0895
178 98 2 101.197 100.505 102.313
179 99 2 103.037 101.304 97.1474
180 100 2 99.4138 97.0038 98.2187
181 101 2 102.104 102.998 97.2886
182 102 2 98.1613 99.4273 99.7555
183 103 2 102.501 101.902 99.8036
184 104 2 101.171 101.571 102.488
185 105 2 102.411 101.572 97.9284
186 106 2 100.253 98.1558 99.6119
187 107 2 99.5933 101.23 100.271
188 108 2 97.6182 102.726 102.003
189 109 2 98.4661 99.7686 100.832
190 110 2 100.521 99.4072 97.7752
191 111 2 97.1998 100.629 102.312
192 112 2 101.551 97.7668 102.497
193 113 2 98.5224 102.024 102.064
194 114 2 100.916 100.341 98.1338
195 115 2 99.7263 102.142 98.815
196 116 2 99.1249 99.8689 100.034
197 117 2 97.2726 98.6618 97.2955
198 118 2 97.0706 101.381 100.436
199 119 2 101.355 98.5252 101.352
200 120 2 101.409 99.55 100.723
ITEM: TIMESTEP
3000
ITEM: NUMBER OF ATOMS
200
ITEM: BOX BOUNDS pp pp pp
9.6941424435374699e+01 1.0305857556462530e+02
9.7031819004288778e+01 1.0296818099571122e+02
9.7031819004288778e+01 1.0296818099571122e+02
ITEM: ATOMS id mol type x y z
1 1 1 102.094 97.7591 100.785
2 1 1 102.163 97.954 99.6362
3 2 1 98.0486 99.3978 97.8986
4 2 1 98.4738 99.6415 102.783
5 3 1 98.8842 99.9547 98.8322
6 3 1 98.8275 100.247 97.6724
7 4 1 100.173 100.299 101.982
8 4 1 100.187 101.362 102.437
9 5 1 101.136 99.6149 101.717
10 5 1 100.005 99.2698 101.997
11 6 1 97.7948 97.8334 101.628
12 6 1 98.6935 97.7797 102.425
13 7 1 97.1048 102.381 97.1536
14 7 1 97.8111 97.4193 102.902
15 8 1 102.552 99.6919 100.516
16 8 1 102.446 100.68 99.926
17 9 1 101.625 101.003 97.3847
18 9 1 102.238 101.92 102.834
19 10 1 97.221 100.022 99.8365
20 10 1 97.2866 101.117 99.4276
21 11 1 102.725 102.623 98.0631
22 11 1 97.7747 102.897 97.9125
23 12 1 102.935 97.3744 101.287
24 12 1 102.98 102.154 101.178
25 13 1 99.1031 101.605 102.69
26 13 1 99.2525 102.809 102.531
27 14 1 99.5883 102.071 101.854
28 14 1 99.7881 97.2664 101.599
29 15 1 98.1464 101.041 98.6092
30 15 1 97.6455 101.844 97.9287
31 16 1 101.767 97.1153 101.543
32 16 1 101.407 102.549 102.554
33 17 1 96.9684 98.9918 102.139
34 17 1 96.977 97.7836 102.359
35 18 1 99.972 99.7045 99.1436
36 18 1 101.148 99.509 98.8594
37 19 1 102.648 102.781 102.18
38 19 1 102.006 101.924 101.693
39 20 1 101.16 98.5159 98.4588
40 20 1 100.41 97.602 98.3762
41 21 1 98.6145 98.6449 97.3592
42 21 1 97.7678 98.0805 98.0329
43 22 1 99.8935 97.3505 97.3669
44 22 1 99.7597 98.0103 102.353
45 23 1 97.3215 97.0148 98.8564
46 23 1 98.4214 97.5032 98.641
47 24 1 96.8952 98.4824 101.016
48 24 1 102.009 98.7303 100.371
49 25 1 100.565 102.286 99.8286
50 25 1 101.467 101.512 99.5539
51 26 1 97.9995 97.2772 99.6449
52 26 1 96.9805 97.581 100.21
53 27 1 100.399 102.491 97.9767
54 27 1 101.469 97.0514 98.3404
55 28 1 97.6372 102.878 100.813
56 28 1 98.541 97.0775 101.586
57 29 1 97.0946 100.782 98.2619
58 29 1 102.386 101.104 98.987
59 30 1 98.6285 102.22 98.295
60 30 1 98.5148 101.289 97.6001
61 31 1 97.2857 97.9784 99.1557
62 31 1 102.409 97.6639 98.5887
63 32 1 99.5481 99.9035 102.826
64 32 1 99.0315 98.8629 102.33
65 33 1 101.452 98.8799 97.3758
66 33 1 100.778 98.4339 102.398
67 34 1 98.5788 98.5906 98.4889
68 34 1 99.5203 98.1959 97.8312
69 35 1 97.756 101.545 101.187
70 35 1 102.774 101.082 101.386
71 36 1 98.7414 100.655 102.643
72 36 1 97.9067 101.521 102.696
73 37 1 99.5276 102.021 97.6902
74 37 1 100.597 101.492 97.4982
75 38 1 98.0821 100.64 101.673
76 38 1 99.2055 101.04 101.709
77 39 1 99.4775 102.363 100.017
78 39 1 100.236 97.3235 100.287
79 40 1 100.719 98.5926 100.51
80 40 1 100.8 97.5275 101.19
81 41 1 100.742 102.206 101.754
82 41 1 100.584 97.3212 102.263
83 42 1 98.9431 101.823 100.94
84 42 1 98.0101 101.488 100.177
85 43 1 101.296 98.6085 99.5429
86 43 1 101.973 99.6123 99.6371
87 44 1 100.156 100.311 100.163
88 44 1 99.8325 99.1323 100.089
89 45 1 99.8649 98.8927 97.0778
90 45 1 100.766 99.4846 102.712
91 46 1 102.127 100.461 98.2059
92 46 1 102.773 99.8196 98.9812
93 47 1 98.3793 97.716 100.608
94 47 1 99.2597 97.5846 99.8219
95 48 1 97.727 100.043 98.7198
96 48 1 97.5755 98.9053 98.7636
97 49 1 97.4604 99.365 100.718
98 49 1 97.5493 100.555 100.777
99 50 1 97.4088 99.6008 102.864
100 50 1 97.9738 98.6363 102.333
101 51 1 102.704 100.369 97.3148
102 51 1 97.782 100.476 97.4462
103 52 1 102.241 100.981 102.335
104 52 1 96.9871 101.776 102.155
105 53 1 99.7062 98.2108 100.62
106 53 1 99.2046 97.1148 100.773
107 54 1 101.152 102.614 100.717
108 54 1 100.82 101.494 100.533
109 55 1 101.732 98.966 102.292
110 55 1 102.504 99.3113 97.2088
111 56 1 102.95 100.005 101.411
112 56 1 97.8831 99.6314 101.851
113 57 1 100.606 98.2191 97.5254
114 57 1 101.742 97.9372 97.8022
115 58 1 103.071 97.5953 97.6125
116 58 1 102.375 98.3101 102.953
117 59 1 101.106 97.6204 99.1554
118 59 1 100.039 97.1171 99.2223
119 60 1 99.3467 99.2091 101.096
120 60 1 98.2441 98.7291 101.253
121 61 1 101.243 101.253 101.482
122 61 1 102.014 101.51 100.639
123 62 1 97.2722 102.376 99.9397
124 62 1 97.014 101.933 98.7934
125 63 1 97.0161 99.6217 97.988
126 63 1 101.972 99.41 98.1585
127 64 1 100.549 100.435 97.1348
128 64 1 101.65 99.9506 97.2497
129 65 1 98.1921 100.534 99.64
130 65 1 98.6361 100.793 100.725
131 66 1 100.337 99.4659 100.953
132 66 1 100.257 98.3725 101.488
133 67 1 100.756 100.427 101.1
134 67 1 101.915 100.381 101.353
135 68 1 98.4404 102.453 100.253
136 68 1 98.8925 102.712 99.2251
137 69 1 100.162 101.277 101.37
138 69 1 99.5535 100.301 101.034
139 70 1 100.138 98.7185 98.6121
140 70 1 99.1676 99.0241 99.2379
141 71 1 99.9087 100.269 98.243
142 71 1 99.1774 101.203 98.4267
143 72 1 100.864 102.197 98.8908
144 72 1 101.375 101.312 98.4036
145 73 1 98.3973 98.2293 99.4788
146 73 1 99.3642 97.962 98.8377
147 74 1 97.6554 98.3921 100.196
148 74 1 98.7432 98.8042 100.298
149 75 1 102.335 99.9403 102.289
150 75 1 102.288 99.1547 101.419
151 76 1 100.525 101.113 99.5121
152 76 1 101.495 100.486 99.1719
153 77 1 100.26 101.254 98.4749
154 77 1 99.5526 100.693 99.2411
155 78 1 101.983 102.112 98.774
156 78 1 102.574 96.9957 99.4
157 79 1 101.56 102.65 99.61
158 79 1 101.227 97.7019 100.214
159 80 1 100.981 97.2519 97.3738
160 80 1 101.452 102.123 97.6562
161 81 2 99.0288 99.9499 101.879
162 82 2 98.0024 102.05 99.2253
163 83 2 102.328 102.651 100.512
164 84 2 99.646 100.929 97.4914
165 85 2 100.889 99.6108 99.88
166 86 2 98.7211 97.5588 97.5278
167 87 2 102.269 98.1632 101.863
168 88 2 100.212 102.409 102.823
169 89 2 99.0824 98.0945 101.488
170 90 2 100.033 102.276 100.915
171 91 2 102.936 98.8899 99.7227
172 92 2 98.9027 101.533 99.4882
173 93 2 98.5048 102.458 97.2414
174 94 2 101.384 100.53 100.247
175 95 2 99.4204 99.304 98.0456
176 96 2 102.176 98.7964 98.9767
177 97 2 102.749 98.5962 98.1367
178 98 2 101.255 100.448 102.29
179 99 2 103.104 101.303 97.1751
180 100 2 99.33 97.0777 98.2572
181 101 2 102.083 102.996 97.2824
182 102 2 98.0699 99.3713 99.6856
183 103 2 102.465 101.882 99.7362
184 104 2 101.249 101.566 102.522
185 105 2 102.414 101.48 97.8862
186 106 2 100.263 98.2092 99.5643
187 107 2 99.6538 101.262 100.312
188 108 2 97.5848 102.734 102.022
189 109 2 98.4578 99.8135 100.912
190 110 2 100.569 99.3784 97.8072
191 111 2 97.2283 100.635 102.279
192 112 2 101.601 97.7538 102.554
193 113 2 98.5313 102.031 101.953
194 114 2 100.953 100.338 98.1236
195 115 2 99.6824 102.116 98.8648
196 116 2 99.1159 99.8749 100.007
197 117 2 97.2996 98.5792 97.223
198 118 2 96.9843 101.408 100.435
199 119 2 101.365 98.5245 101.36
200 120 2 101.49 99.5457 100.716
ITEM: TIMESTEP
4000
ITEM: NUMBER OF ATOMS
200
ITEM: BOX BOUNDS pp pp pp
9.6910685239910663e+01 1.0308931476008934e+02
9.7031819004288778e+01 1.0296818099571122e+02
9.7031819004288778e+01 1.0296818099571122e+02
ITEM: ATOMS id mol type x y z
1 1 1 102.137 97.7807 100.726
2 1 1 102.293 98.0173 99.5653
3 2 1 98.0234 99.5535 97.9945
4 2 1 98.4396 99.6507 102.824
5 3 1 98.7633 99.8921 98.9094
6 3 1 98.8074 100.239 97.743
7 4 1 100.193 100.26 101.98
8 4 1 100.172 101.333 102.446
9 5 1 101.085 99.5732 101.76
10 5 1 99.9564 99.2026 101.974
11 6 1 97.7155 97.8689 101.565
12 6 1 98.5879 97.8919 102.377
13 7 1 97.0547 102.395 97.1571
14 7 1 97.799 97.3567 102.836
15 8 1 102.605 99.7245 100.579
16 8 1 102.453 100.671 99.9594
17 9 1 101.647 100.993 97.3861
18 9 1 102.213 101.908 102.81
19 10 1 97.2832 100.087 99.9356
20 10 1 97.329 101.165 99.4186
21 11 1 102.746 102.699 98.1238
22 11 1 97.7572 102.882 97.8809
23 12 1 102.963 97.3368 101.275
24 12 1 102.931 102.133 101.155
25 13 1 99.1746 101.715 102.712
26 13 1 99.2638 102.902 102.362
27 14 1 99.6188 102.095 101.816
28 14 1 99.8902 97.3105 101.504
29 15 1 98.1069 101.04 98.6741
30 15 1 97.6026 101.817 97.9443
31 16 1 101.891 97.0461 101.473
32 16 1 101.43 102.564 102.485
33 17 1 96.8625 98.997 102.198
34 17 1 97.0278 97.8325 102.308
35 18 1 99.9796 99.6761 99.1758
36 18 1 101.133 99.4909 98.8235
37 19 1 102.604 102.808 102.228
38 19 1 102.076 101.896 101.741
39 20 1 101.187 98.481 98.4252
40 20 1 100.383 97.589 98.3082
41 21 1 98.629 98.6927 97.3445
42 21 1 97.7429 98.1516 98.0107
43 22 1 99.864 97.3592 97.3271
44 22 1 99.7351 98.032 102.308
45 23 1 97.2707 97.0967 98.8446
46 23 1 98.3868 97.4929 98.5997
47 24 1 96.8514 98.429 100.934
48 24 1 102.048 98.7414 100.347
49 25 1 100.553 102.112 99.7982
50 25 1 101.522 101.491 99.5972
51 26 1 98.0128 97.2648 99.6274
52 26 1 96.9717 97.5624 100.18
53 27 1 100.398 102.476 97.912
54 27 1 101.468 97.0252 98.3033
55 28 1 97.5755 102.803 100.805
56 28 1 98.4559 97.0642 101.594
57 29 1 97.0584 100.877 98.2093
58 29 1 102.439 101.15 99.0008
59 30 1 98.5823 102.206 98.3803
60 30 1 98.5235 101.3 97.632
61 31 1 97.2587 98.0492 99.2362
62 31 1 102.481 97.718 98.5877
63 32 1 99.5149 99.8985 102.791
64 32 1 98.9637 98.9224 102.247
65 33 1 101.426 98.9071 97.3794
66 33 1 100.823 98.4242 102.371
67 34 1 98.5678 98.6327 98.4563
68 34 1 99.4949 98.1767 97.8964
69 35 1 97.6826 101.669 101.245
70 35 1 102.86 100.996 101.424
71 36 1 98.6778 100.671 102.698
72 36 1 97.889 101.554 102.735
73 37 1 99.5099 101.939 97.7343
74 37 1 100.607 101.414 97.5549
75 38 1 98.1234 100.861 101.78
76 38 1 99.256 101.106 101.786
77 39 1 99.4978 102.341 100.022
78 39 1 100.199 97.3361 100.3
79 40 1 100.785 98.5357 100.51
80 40 1 100.925 97.5002 101.157
81 41 1 100.754 102.265 101.697
82 41 1 100.562 97.3454 102.32
83 42 1 98.9367 101.85 100.973
84 42 1 98.0251 101.494 100.246
85 43 1 101.316 98.5629 99.5396
86 43 1 101.979 99.5793 99.6917
87 44 1 100.178 100.255 100.158
88 44 1 99.8575 99.106 100.128
89 45 1 99.8065 98.7996 97.1074
90 45 1 100.716 99.4616 102.714
91 46 1 102.193 100.557 98.1838
92 46 1 102.752 99.9572 99.0315
93 47 1 98.2468 97.6826 100.609
94 47 1 99.1977 97.603 99.857
95 48 1 97.632 100.11 98.8498
96 48 1 97.5523 98.9552 98.746
97 49 1 97.4604 99.3601 100.656
98 49 1 97.5482 100.526 100.931