ITEM: TIMESTEP
0
ITEM: NUMBER OF ATOMS
200
ITEM: BOX BOUNDS pp pp pp
9.7027322642197717e+01 1.0297267735780228e+02
9.7027322642197717e+01 1.0297267735780228e+02
9.7027322642197717e+01 1.0297267735780228e+02
ITEM: ATOMS id mol type x y z
1 1 1 102.557 99.0212 101.422
2 1 1 97.5722 99.7072 101.173
3 2 1 101.756 98.2322 98.5867
4 2 1 100.974 97.7081 97.8412
5 3 1 100.953 98.8899 98.9285
6 3 1 100.204 98.3993 98.1394
7 4 1 98.5016 101.117 102.475
8 4 1 98.2373 99.9383 102.257
9 5 1 100.514 99.3831 97.1963
10 5 1 99.3603 99.6904 102.791
11 6 1 97.1639 102.802 101.328
12 6 1 97.922 97.8392 101.252
13 7 1 98.8258 97.2882 102.448
14 7 1 98.9065 102.866 97.5941
15 8 1 102.553 99.9246 100.889
16 8 1 102.454 100.443 99.8152
17 9 1 99.3159 100.734 97.137
18 9 1 100.063 101.554 97.0712
19 10 1 102.711 99.672 99.1144
20 10 1 102.935 100.758 98.8785
21 11 1 102.059 97.6447 97.7376
22 11 1 97.2311 97.3236 97.5943
23 12 1 102.478 99.323 102.458
24 12 1 102.972 98.2844 102.114
25 13 1 97.0665 101.194 101.915
26 13 1 97.5779 101.811 100.999
27 14 1 100.466 101.387 101.635
28 14 1 99.5731 101.839 101.07
29 15 1 98.0402 102.491 99.1723
30 15 1 97.5957 102.167 98.1376
31 16 1 101.02 97.2342 101.944
32 16 1 99.9094 97.6021 102.301
33 17 1 102.922 100.166 101.911
34 17 1 97.5461 99.1643 102.205
35 18 1 101.8 97.8594 100.936
36 18 1 101.365 98.372 99.8755
37 19 1 102.054 101.592 102.133
38 19 1 101.8 102.669 102.483
39 20 1 101.525 97.3512 99.9698
40 20 1 100.92 97.7413 99.0369
41 21 1 99.8269 97.5163 97.4618
42 21 1 99.135 98.2595 102.736
43 22 1 97.6589 97.2972 102.201
44 22 1 97.9566 102.503 97.1399
45 23 1 98.6671 102.076 98.3178
46 23 1 98.0615 97.1942 98.2546
47 24 1 101.491 98.8405 101.544
48 24 1 100.705 99.5665 101.988
49 25 1 100.444 101.087 99.2633
50 25 1 101.41 100.688 99.7651
51 26 1 97.3277 101.133 99.7972
52 26 1 102.804 102.129 100.228
53 27 1 100.673 102.729 98.2256
54 27 1 100.614 97.0523 102.953
55 28 1 98.9197 99.1182 102.001
56 28 1 99.0336 99.0514 100.864
57 29 1 102.849 101.362 98.0615
58 29 1 97.0511 101.895 99.0951
59 30 1 100.919 101.827 97.6741
60 30 1 99.8272 102.36 97.7725
61 31 1 102.663 99.2753 100.088
62 31 1 97.4086 98.6635 100.78
63 32 1 97.3708 99.361 97.3722
64 32 1 98.4643 99.0904 97.0419
65 33 1 100.131 97.6089 101.257
66 33 1 100.755 98.2452 102.013
67 34 1 98.9247 97.0548 98.7827
68 34 1 98.9834 98.1126 99.2322
69 35 1 98.7591 102.168 102.348
70 35 1 98.1914 102.687 101.477
71 36 1 97.7024 100.517 98.0984
72 36 1 98.8186 100.945 98.2002
73 37 1 99.6538 102.528 102.628
74 37 1 99.1914 102.802 101.56
75 38 1 97.9366 101.397 97.3993
76 38 1 97.8151 101.826 102.228
77 39 1 100.114 101.425 98.2055
78 39 1 99.4098 101.315 99.1032
79 40 1 100.902 98.2956 100.88
80 40 1 99.9465 98.7082 101.239
81 41 1 100.982 97.1082 100.887
82 41 1 101.34 102.081 101.513
83 42 1 99.0029 102.207 99.4815
84 42 1 98.4734 97.259 99.7763
85 43 1 100.737 99.3682 100.918
86 43 1 99.734 99.6782 101.589
87 44 1 102.169 100.864 101.36
88 44 1 101.515 100.141 100.688
89 45 1 99.5525 98.8915 97.5316
90 45 1 100.309 99.4169 98.2319
91 46 1 97.3827 99.0654 98.5238
92 46 1 97.4979 98.6929 99.658
93 47 1 98.7548 97.4382 100.77
94 47 1 99.7777 102.794 100.62
95 48 1 97.9864 98.2688 98.1593
96 48 1 97.3426 98.2906 97.2018
97 49 1 97.8331 97.8262 99.177
98 49 1 98.3265 98.9293 99.0432
99 50 1 102.165 100.596 102.574
100 50 1 101.038 101.004 97.0384
101 51 1 102.813 101.398 97.0394
102 51 1 102.835 102.35 102.237
103 52 1 101.794 101.625 97.1595
104 52 1 101.934 101.903 98.2546
105 53 1 100.37 98.9066 100.038
106 53 1 99.5235 98.1182 100.469
107 54 1 100.605 102.065 100.777
108 54 1 100.314 100.966 100.406
109 55 1 102.822 97.8461 101.163
110 55 1 101.942 98.0501 101.98
111 56 1 102.756 99.9385 98.0696
112 56 1 101.921 100.418 98.7811
113 57 1 102.048 99.5473 97.4005
114 57 1 102.242 98.4387 102.938
115 58 1 101.494 102.649 97.5261
116 58 1 101.436 97.7435 102.821
117 59 1 99.8701 102.37 98.8606
118 59 1 99.5563 97.2613 99.6587
119 60 1 98.162 98.8513 101.386
120 60 1 98.1584 99.3288 100.298
121 61 1 101.278 100.009 102.743
122 61 1 101.292 100.832 101.937
123 62 1 102.523 101.902 101.263
124 62 1 102.133 101.296 100.357
125 63 1 98.1886 100.914 100.517
126 63 1 97.9567 100.71 101.659
127 64 1 102.467 98.8074 97.9598
128 64 1 97.0658 97.9136 98.4798
129 65 1 97.8451 99.9417 99.0325
130 65 1 98.5023 100.783 99.4314
131 66 1 98.6365 99.9847 101.201
132 66 1 99.2023 100.439 102.066
133 67 1 99.7357 99.6978 100.509
134 67 1 100.537 100.342 101.232
135 68 1 98.1653 101.743 99.887
136 68 1 97.7465 102.704 100.416
137 69 1 99.169 101.282 100.24
138 69 1 98.7933 100.112 100.16
139 70 1 100.455 98.2598 97.0681
140 70 1 101.379 98.9162 102.624
141 71 1 101.198 99.8775 97.8933
142 71 1 101.086 100.899 98.3225
143 72 1 101.646 102.934 98.5171
144 72 1 102.296 97.6159 99.2657
145 73 1 99.2921 99.026 98.5642
146 73 1 100.051 98.3628 99.227
147 74 1 99.3656 99.9035 97.9065
148 74 1 98.9188 99.8697 99.0528
149 75 1 100.285 100.556 102.279
150 75 1 99.5207 101.487 102.101
151 76 1 100.66 99.9739 100.028
152 76 1 101.714 99.5606 99.6127
153 77 1 101.824 99.3896 98.5672
154 77 1 100.936 100.049 98.9425
155 78 1 97.1659 102.933 99.5165
156 78 1 102.023 102.478 99.4168
157 79 1 101.121 101.678 99.8957
158 79 1 100.675 102.728 99.5023
159 80 1 102.473 97.1495 100.377
160 80 1 97.4923 97.7533 100.231
161 81 2 98.391 100.248 97.3177
162 82 2 97.8843 101.33 98.7808
163 83 2 101.705 102.368 100.538
164 84 2 97.3991 100.49 102.838
165 85 2 101.798 98.9895 100.549
166 86 2 98.2469 97.7352 97.2602
167 87 2 101.79 99.9387 101.729
168 88 2 100.299 102.51 101.713
169 89 2 99.1258 98.1167 101.628
170 90 2 100.009 101.956 99.9339
171 91 2 97.479 100.15 100.06
172 92 2 98.7907 102.335 100.557
173 93 2 98.9778 101.717 97.3421
174 94 2 101.225 101.211 100.844
175 95 2 98.9874 98.0175 98.0631
176 96 2 102.466 98.1815 100.19
177 97 2 102.623 97.3777 102.671
178 98 2 100.355 100.376 97.5147
179 99 2 102.574 102.391 97.4446
180 100 2 99.842 97.5269 98.5746
181 101 2 100.998 102.004 102.508
182 102 2 98.2925 99.4179 98.0602
183 103 2 101.993 101.384 99.1967
184 104 2 98.4345 98.3422 100.197
185 105 2 102.699 102.822 98.4177
186 106 2 100.462 97.7245 100.111
187 107 2 99.6609 100.422 99.6057
188 108 2 98.1692 98.2405 102.262
189 109 2 99.2314 99.0134 99.8081
190 110 2 101.279 98.7096 97.7825
191 111 2 101.963 100.787 97.7355
192 112 2 102.089 102.952 101.496
193 113 2 98.6426 101.437 101.411
194 114 2 102.427 98.652 99.2354
195 115 2 101.034 101.928 98.8449
196 116 2 99.969 99.4942 99.223
197 117 2 99.9893 100.428 98.5976
198 118 2 97.1 100.888 100.829
199 119 2 99.8587 98.8627 102.339
200 120 2 99.5574 100.771 101.1
ITEM: TIMESTEP
1000
ITEM: NUMBER OF ATOMS
200
ITEM: BOX BOUNDS pp pp pp
9.6997446738064482e+01 1.0300255326193552e+02
9.7027322642197717e+01 1.0297267735780228e+02
9.7027322642197717e+01 1.0297267735780228e+02
ITEM: ATOMS id mol type x y z
1 1 1 102.568 99.0659 101.394
2 1 1 97.5413 99.7483 101.164
3 2 1 101.794 98.1685 98.6118
4 2 1 100.984 97.6621 97.9206
5 3 1 100.957 98.8992 98.9344
6 3 1 100.199 98.3847 98.1362
7 4 1 98.4871 101.108 102.486
8 4 1 98.3591 99.9506 102.26
9 5 1 100.518 99.3451 97.2451
10 5 1 99.4158 99.7404 102.791
11 6 1 97.1356 102.858 101.316
12 6 1 97.8452 97.8405 101.212
13 7 1 98.7258 97.2517 102.354
14 7 1 98.9489 102.919 97.5453
15 8 1 102.542 99.9785 100.852
16 8 1 102.382 100.375 99.7524
17 9 1 99.2769 100.765 97.1622
18 9 1 100.075 101.623 97.1204
19 10 1 102.759 99.6414 99.1057
20 10 1 102.931 100.744 98.77
21 11 1 102.193 97.6811 97.7574
22 11 1 97.2877 97.2675 97.578
23 12 1 102.399 99.3159 102.39
24 12 1 102.99 98.3373 102.112
25 13 1 97.0485 101.25 101.901
26 13 1 97.5987 101.823 101.008
27 14 1 100.505 101.314 101.568
28 14 1 99.5622 101.861 101.116
29 15 1 98.0451 102.456 99.0743
30 15 1 97.6417 102.268 97.9888
31 16 1 101.049 97.1545 102.019
32 16 1 99.9818 97.5288 102.342
33 17 1 102.862 100.174 101.887
34 17 1 97.5441 99.2662 102.258
35 18 1 101.785 97.8337 100.851
36 18 1 101.299 98.3593 99.8121
37 19 1 102.04 101.563 102.123
38 19 1 101.888 102.643 102.478
39 20 1 101.562 97.3235 99.9449
40 20 1 100.909 97.7541 99.0456
41 21 1 99.8334 97.5277 97.5169
42 21 1 99.195 98.1906 102.683
43 22 1 97.5812 97.3541 102.238
44 22 1 98.0899 102.501 97.0559
45 23 1 98.6759 102.081 98.2548
46 23 1 98.0906 97.2467 98.2409
47 24 1 101.539 98.8293 101.534
48 24 1 100.759 99.6224 101.983
49 25 1 100.475 101.099 99.1423
50 25 1 101.369 100.672 99.7245
51 26 1 97.2306 101.049 99.7417
52 26 1 102.894 102.12 100.238
53 27 1 100.681 102.731 98.2966
54 27 1 100.625 97.0101 103.064
55 28 1 98.959 99.0975 102.029
56 28 1 99.0005 99.0568 100.841
57 29 1 102.993 101.497 98.0274
58 29 1 97.0028 101.869 99.1142
59 30 1 100.92 101.902 97.6614
60 30 1 99.8078 102.333 97.8834
61 31 1 102.619 99.2653 100.063
62 31 1 97.371 98.707 100.706
63 32 1 97.404 99.4291 97.406
64 32 1 98.515 99.0803 97.0864
65 33 1 100.03 97.6632 101.278
66 33 1 100.816 98.2052 101.985
67 34 1 98.969 96.9861 98.8009
68 34 1 98.9961 98.0635 99.3385
69 35 1 98.8187 102.129 102.248
70 35 1 98.183 102.763 101.48
71 36 1 97.6203 100.48 98.0296
72 36 1 98.7724 100.905 98.1666
73 37 1 99.6529 102.571 102.712
74 37 1 99.2735 102.853 101.553
75 38 1 97.9 101.369 97.3942
76 38 1 97.8433 101.808 102.187
77 39 1 100.142 101.394 98.1733
78 39 1 99.3561 101.294 99.0105
79 40 1 100.891 98.2804 100.878
80 40 1 99.8922 98.7015 101.202
81 41 1 100.921 97.1341 100.97
82 41 1 101.314 102.06 101.517
83 42 1 98.9113 102.135 99.522
84 42 1 98.4202 97.2046 99.7851
85 43 1 100.715 99.339 100.977
86 43 1 99.7448 99.7017 101.606
87 44 1 102.207 100.842 101.399
88 44 1 101.537 100.175 100.632
89 45 1 99.5239 98.8526 97.4712
90 45 1 100.227 99.4413 98.2822
91 46 1 97.3948 99.0432 98.5175
92 46 1 97.4491 98.7004 99.6525
93 47 1 98.729 97.3581 100.756
94 47 1 99.8129 102.79 100.633
95 48 1 97.9961 98.3108 98.1207
96 48 1 97.2267 98.3253 97.2595
97 49 1 97.9097 97.8292 99.1524
98 49 1 98.2875 98.9699 99.1113
99 50 1 102.082 100.585 102.659
100 50 1 101.002 101.05 97.0178
101 51 1 102.868 101.397 97.0182
102 51 1 102.898 102.342 102.25
103 52 1 101.824 101.603 97.1873
104 52 1 101.986 101.965 98.2628
105 53 1 100.304 98.852 100.138
106 53 1 99.4382 98.1185 100.395
107 54 1 100.577 102.096 100.742
108 54 1 100.362 100.998 100.387
109 55 1 102.788 97.9027 101.133
110 55 1 101.962 97.9785 101.961
111 56 1 102.782 99.8654 98.0941
112 56 1 101.933 100.367 98.801
113 57 1 102.055 99.5635 97.3911
114 57 1 102.168 98.4642 102.976
115 58 1 101.554 102.709 97.524
116 58 1 101.409 97.7374 102.845
117 59 1 99.8602 102.245 98.912
118 59 1 99.5472 97.1958 99.7038
119 60 1 98.1249 98.9298 101.408
120 60 1 98.1186 99.3289 100.253
121 61 1 101.198 100.045 102.82
122 61 1 101.276 100.815 101.958
123 62 1 102.515 101.99 101.286
124 62 1 102.216 101.275 100.337
125 63 1 98.1346 100.895 100.516
126 63 1 97.8514 100.659 101.66
127 64 1 102.528 98.777 97.9928
128 64 1 97.0622 97.8406 98.501
129 65 1 97.7813 100.055 99.0282
130 65 1 98.5157 100.885 99.493
131 66 1 98.6159 100.026 101.212
132 66 1 99.2107 100.514 102.061
133 67 1 99.786 99.7524 100.517
134 67 1 100.594 100.348 101.19
135 68 1 97.9385 101.786 99.8801
136 68 1 97.7342 102.804 100.483
137 69 1 99.1133 101.285 100.286
138 69 1 98.7814 100.114 100.198
139 70 1 100.449 98.2694 97.0927
140 70 1 101.31 98.9297 102.564
141 71 1 101.193 99.8635 97.9414
142 71 1 101.185 101.002 98.1624
143 72 1 101.668 103.006 98.5958
144 72 1 102.409 97.5644 99.3228
145 73 1 99.2561 98.9796 98.5297
146 73 1 100.018 98.4004 99.2463
147 74 1 99.2943 99.8767 97.8978
148 74 1 98.8954 99.9405 99.0035
149 75 1 100.232 100.508 102.38
150 75 1 99.6102 101.486 102.091
151 76 1 100.678 99.9141 99.9806
152 76 1 101.695 99.5047 99.5946
153 77 1 101.82 99.3368 98.5394
154 77 1 100.911 100.057 98.9007
155 78 1 97.2101 102.857 99.527
156 78 1 102.102 102.425 99.3835
157 79 1 101.172 101.719 99.9006
158 79 1 100.662 102.714 99.45
159 80 1 102.582 97.1348 100.386
160 80 1 97.4516 97.7904 100.143
161 81 2 98.4044 100.243 97.3458
162 82 2 97.8667 101.339 98.7257
163 83 2 101.714 102.381 100.516
164 84 2 97.4745 100.539 102.791
165 85 2 101.775 98.9898 100.534
166 86 2 98.2449 97.7697 97.2315
167 87 2 101.724 99.9354 101.626
168 88 2 100.292 102.412 101.8
169 89 2 99.0556 98.1164 101.578
170 90 2 99.9453 101.871 99.9344
171 91 2 97.3973 100.068 100.056
172 92 2 98.7357 102.269 100.629
173 93 2 98.9715 101.746 97.2916
174 94 2 101.267 101.229 100.809
175 95 2 99.0042 97.9715 98.1745
176 96 2 102.432 98.1994 100.151
177 97 2 102.627 97.3968 102.735
178 98 2 100.329 100.452 97.6176
179 99 2 102.596 102.442 97.3988
180 100 2 99.854 97.508 98.6283
181 101 2 101.066 102.031 102.526
182 102 2 98.2568 99.4697 98.0947
183 103 2 102.058 101.375 99.187
184 104 2 98.425 98.3265 100.257
185 105 2 102.733 102.774 98.451
186 106 2 100.435 97.6962 100.096
187 107 2 99.6506 100.442 99.6533
188 108 2 98.175 98.2814 102.287
189 109 2 99.2176 99.0291 99.8088
190 110 2 101.362 98.6782 97.7614
191 111 2 102.185 100.84 97.8228
192 112 2 102.118 102.935 101.503
193 113 2 98.6411 101.36 101.359
194 114 2 102.48 98.6547 99.1889
195 115 2 101.074 101.929 98.8264
196 116 2 99.9715 99.487 99.2618
197 117 2 99.8666 100.418 98.625
198 118 2 97.1089 100.846 100.852
199 119 2 99.9207 98.8674 102.323
200 120 2 99.5722 100.776 101.121
ITEM: TIMESTEP
2000
ITEM: NUMBER OF ATOMS
200
ITEM: BOX BOUNDS pp pp pp
9.6967270576102919e+01 1.0303272942389708e+02
9.7027322642197717e+01 1.0297267735780228e+02
9.7027322642197717e+01 1.0297267735780228e+02
ITEM: ATOMS id mol type x y z
1 1 1 102.593 99.0329 101.412
2 1 1 97.5222 99.7231 101.182
3 2 1 101.731 98.2281 98.6531
4 2 1 101.008 97.7404 97.8914
5 3 1 100.987 98.926 98.9181
6 3 1 100.171 98.382 98.1707
7 4 1 98.4943 101.119 102.45
8 4 1 98.3056 99.9388 102.228
9 5 1 100.464 99.428 97.2173
10 5 1 99.331 99.7177 102.786
11 6 1 97.1148 102.84 101.32
12 6 1 97.8721 97.8263 101.239
13 7 1 98.7511 97.2556 102.397
14 7 1 98.9141 102.85 97.6148
15 8 1 102.566 99.932 100.91
16 8 1 102.441 100.397 99.8017
17 9 1 99.2447 100.681 97.1873
18 9 1 100.099 101.476 97.0514
19 10 1 102.847 99.6786 99.1349
20 10 1 102.968 100.795 98.8114
21 11 1 102.142 97.687 97.7746
22 11 1 97.1968 97.3764 97.7183
23 12 1 102.579 99.3826 102.472
24 12 1 103.052 98.2865 102.068
25 13 1 97.0079 101.238 101.898
26 13 1 97.5793 101.828 100.996
27 14 1 100.483 101.35 101.643
28 14 1 99.6088 101.809 101.009
29 15 1 97.9534 102.466 99.1644
30 15 1 97.6613 102.166 98.079
31 16 1 101.069 97.3397 101.96
32 16 1 99.9508 97.5729 102.343
33 17 1 102.962 100.194 101.9
34 17 1 97.5319 99.2675 102.239
35 18 1 101.813 97.8034 100.849
36 18 1 101.327 98.443 99.8939
37 19 1 102.089 101.586 102.095
38 19 1 101.863 102.721 102.462
39 20 1 101.557 97.353 99.8984
40 20 1 100.852 97.77 99.0185
41 21 1 99.8502 97.4897 97.5214
42 21 1 99.1525 98.1498 102.758
43 22 1 97.6098 97.331 102.229
44 22 1 97.9877 102.528 97.1142
45 23 1 98.6785 102.004 98.3289
46 23 1 98.0501 97.1512 98.3309
47 24 1 101.539 98.8581 101.566
48 24 1 100.701 99.5387 102.03
49 25 1 100.467 101.072 99.1909
50 25 1 101.406 100.636 99.7779
51 26 1 97.1872 101.079 99.7607
52 26 1 102.854 102.084 100.22
53 27 1 100.672 102.735 98.262
54 27 1 100.722 97.0957 103.017
55 28 1 98.9258 99.1155 101.986
56 28 1 99.0228 99.0534 100.819
57 29 1 103.02 101.455 98.0185
58 29 1 96.9041 101.858 99.1301
59 30 1 100.935 101.857 97.6691
60 30 1 99.8309 102.372 97.7685
61 31 1 102.643 99.296 100.082
62 31 1 97.3467 98.7247 100.706
63 32 1 97.3928 99.397 97.3636
64 32 1 98.4984 99.048 97.0772
65 33 1 100.1 97.5903 101.294
66 33 1 100.751 98.3283 101.982
67 34 1 98.8949 96.9837 98.8468
68 34 1 98.946 98.0646 99.2376
69 35 1 98.7888 102.172 102.304
70 35 1 98.1835 102.69 101.47
71 36 1 97.6452 100.597 98.042
72 36 1 98.8009 100.943 98.1475
73 37 1 99.7211 102.525 102.69
74 37 1 99.3121 102.806 101.585
75 38 1 97.8885 101.422 97.3281
76 38 1 97.7798 101.893 102.154
77 39 1 100.122 101.444 98.2411
78 39 1 99.3517 101.307 99.0439
79 40 1 100.907 98.3067 100.895
80 40 1 99.9129 98.6951 101.199
81 41 1 101.022 97.0801 100.89
82 41 1 101.317 102.088 101.524
83 42 1 98.8893 102.126 99.5184
84 42 1 98.4439 97.2228 99.7939
85 43 1 100.763 99.4014 100.96
86 43 1 99.7573 99.6503 101.556
87 44 1 102.211 100.846 101.404
88 44 1 101.538 100.124 100.721
89 45 1 99.5314 98.8606 97.4969
90 45 1 100.3 99.4523 98.2549
91 46 1 97.3164 99.0924 98.4774
92 46 1 97.3608 98.7306 99.6611
93 47 1 98.7634 97.4143 100.788
94 47 1 99.8055 102.765 100.633
95 48 1 97.9851 98.3662 98.128
96 48 1 97.3115 98.3324 97.145
97 49 1 97.8898 97.8826 99.1551
98 49 1 98.2451 99.0297 99.1295
99 50 1 102.198 100.563 102.565
100 50 1 101.137 100.978 97.1151
101 51 1 102.859 101.405 96.944
102 51 1 102.827 102.371 102.21
103 52 1 101.876 101.674 97.1722
104 52 1 102.036 101.917 98.2718
105 53 1 100.373 98.8759 100.145
106 53 1 99.5015 98.1228 100.381
107 54 1 100.597 102.043 100.74
108 54 1 100.322 100.99 100.374
109 55 1 102.858 97.8728 101.084
110 55 1 101.969 97.9589 101.89
111 56 1 102.839 99.9154 98.0854
112 56 1 101.947 100.385 98.7629
113 57 1 102.097 99.5706 97.4276
114 57 1 102.287 98.4808 102.904
115 58 1 101.591 102.678 97.5149
116 58 1 101.492 97.7992 102.877
117 59 1 99.8367 102.353 98.8526
118 59 1 99.5309 97.2091 99.6946
119 60 1 98.1396 98.8568 101.344
120 60 1 98.1127 99.3388 100.26
121 61 1 101.302 100.002 102.799
122 61 1 101.309 100.813 101.969
123 62 1 102.604 101.93 101.247
124 62 1 102.183 101.26 100.337
125 63 1 98.0894 100.795 100.523
126 63 1 97.8198 100.658 101.648
127 64 1 102.511 98.7153 97.9625
128 64 1 97.0365 97.9178 98.5775
129 65 1 97.7403 100.063 99.0389
130 65 1 98.5025 100.841 99.4748
131 66 1 98.5835 99.9448 101.218
132 66 1 99.2177 100.46 102.067
133 67 1 99.805 99.7069 100.522
134 67 1 100.517 100.361 101.289
135 68 1 98.0055 101.71 99.9415
136 68 1 97.6787 102.73 100.444
137 69 1 99.0344 101.275 100.267
138 69 1 98.8484 100.063 100.206
139 70 1 100.466 98.2593 97.0961
140 70 1 101.357 98.9118 102.657
141 71 1 101.218 99.9019 97.8845
142 71 1 101.182 101.006 98.2531
143 72 1 101.595 103.008 98.5835
144 72 1 102.371 97.6392 99.2683
145 73 1 99.2301 98.9538 98.5547
146 73 1 100.005 98.3466 99.2607
147 74 1 99.3542 99.8407 97.9052
148 74 1 98.9145 99.8818 99.036
149 75 1 100.224 100.569 102.33
150 75 1 99.5543 101.491 102.049
151 76 1 100.708 99.9134 100.004
152 76 1 101.733 99.4959 99.6154
153 77 1 101.89 99.3778 98.4691
154 77 1 100.966 100.022 98.9141
155 78 1 97.0801 102.93 99.5208
156 78 1 102.082 102.459 99.4128
157 79 1 101.103 101.65 99.8809
158 79 1 100.614 102.71 99.4814
159 80 1 102.523 97.1335 100.346
160 80 1 97.4133 97.7925 100.199
161 81 2 98.2999 100.225 97.2853
162 82 2 97.8256 101.337 98.8073
163 83 2 101.714 102.294 100.495
164 84 2 97.3918 100.51 102.773
165 85 2 101.83 98.9855 100.602
166 86 2 98.2255 97.6908 97.2649
167 87 2 101.825 99.9281 101.764
168 88 2 100.381 102.519 101.764
169 89 2 99.1461 98.1404 101.617
170 90 2 99.967 101.915 99.8766
171 91 2 97.3858 100.065 100.072
172 92 2 98.7441 102.269 100.584
173 93 2 98.9908 101.701 97.2883
174 94 2 101.229 101.186 100.853
175 95 2 98.9747 97.9676 98.1146
176 96 2 102.436 98.2043 100.126
177 97 2 102.682 97.4081 102.731
178 98 2 100.367 100.448 97.5552
179 99 2 102.706 102.412 97.4309
180 100 2 99.8117 97.4803 98.5884
181 101 2 101.039 101.997 102.529
182 102 2 98.2444 99.523 98.1066
183 103 2 102.017 101.368 99.1802
184 104 2 98.4763 98.2949 100.167
185 105 2 102.693 102.792 98.4698
186 106 2 100.458 97.6805 100.13
187 107 2 99.6367 100.451 99.6056
188 108 2 98.1643 98.2736 102.284
189 109 2 99.2136 99.0227 99.7989
190 110 2 101.321 98.7251 97.7717
191 111 2 102.125 100.818 97.7682
192 112 2 102.1 102.964 101.45
193 113 2 98.6412 101.423 101.37
194 114 2 102.494 98.6981 99.1662
195 115 2 101.062 101.955 98.859
196 116 2 99.9807 99.4993 99.2754
197 117 2 99.9117 100.46 98.5688
198 118 2 97.0499 100.894 100.829
199 119 2 99.8234 98.8232 102.361
200 120 2 99.4467 100.722 101.09
ITEM: TIMESTEP
3000
ITEM: NUMBER OF ATOMS
200
ITEM: BOX BOUNDS pp pp pp
9.6936791138671680e+01 1.0306320886132832e+02
9.7027322642197717e+01 1.0297267735780228e+02
9.7027322642197717e+01 1.0297267735780228e+02
ITEM: ATOMS id mol type x y z
1 1 1 102.608 99.0494 101.414
2 1 1 97.4663 99.7208 101.166
3 2 1 101.824 98.2002 98.58
4 2 1 101.01 97.7161 97.9131
5 3 1 100.999 98.8641 98.8969
6 3 1 100.151 98.43 98.1644
7 4 1 98.465 101.063 102.436
8 4 1 98.2894 99.8803 102.269
9 5 1 100.466 99.4164 97.2061
10 5 1 99.3586 99.7127 102.795
11 6 1 97.0934 102.825 101.338
12 6 1 97.8427 97.7938 101.277
13 7 1 98.6799 97.2776 102.408
14 7 1 98.9436 102.914 97.6591
15 8 1 102.599 100.014 100.868
16 8 1 102.466 100.475 99.798
17 9 1 99.2668 100.735 97.1613
18 9 1 100.161 101.507 97.0649
19 10 1 102.79 99.6804 99.1666
20 10 1 102.97 100.78 98.8181
21 11 1 102.248 97.6883 97.7793
22 11 1 97.2764 97.3435 97.6051
23 12 1 102.586 99.4024 102.415
24 12 1 103.029 98.313 102.118
25 13 1 96.9716 101.259 101.904
26 13 1 97.5519 101.834 101.039
27 14 1 100.437 101.344 101.594
28 14 1 99.5767 101.835 101.073
29 15 1 97.9327 102.448 99.1246
30 15 1 97.5678 102.255 98.0338
31 16 1 101.139 97.1391 102.092
32 16 1 99.9796 97.5128 102.3
33 17 1 102.962 100.216 101.858
34 17 1 97.4751 99.2394 102.148
35 18 1 101.851 97.856 100.915
36 18 1 101.374 98.3958 99.856
37 19 1 102.074 101.517 102.102
38 19 1 101.987 102.575 102.448
39 20 1 101.578 97.3697 99.9972
40 20 1 100.93 97.7432 99.0169
41 21 1 99.8594 97.5166 97.5474
42 21 1 99.2073 98.14 102.759
43 22 1 97.576 97.3678 102.342
44 22 1 98.06 102.512 97.1241
45 23 1 98.5964 102.043 98.3161
46 23 1 98.0615 97.2202 98.2976
47 24 1 101.55 98.8107 101.595
48 24 1 100.728 99.5861 101.97
49 25 1 100.48 101.122 99.2233
50 25 1 101.435 100.653 99.7514
51 26 1 97.2018 101.081 99.7548
52 26 1 102.931 102.078 100.256
53 27 1 100.689 102.755 98.3158
54 27 1 100.675 97.0308 103.046
55 28 1 98.9499 99.0924 102.002
56 28 1 99.013 99.0448 100.809
57 29 1 103.01 101.497 98.0533
58 29 1 96.9128 101.906 99.1725
59 30 1 100.971 101.899 97.6883
60 30 1 99.8742 102.388 97.7079
61 31 1 102.684 99.278 100.14
62 31 1 97.3262 98.6902 100.793
63 32 1 97.3385 99.4562 97.3447
64 32 1 98.4451 99.0234 97.0932
65 33 1 100.137 97.6282 101.235
66 33 1 100.828 98.1356 102.025
67 34 1 98.9693 97.0216 98.7686
68 34 1 98.9838 98.0929 99.2377
69 35 1 98.783 102.165 102.263
70 35 1 98.1442 102.708 101.498
71 36 1 97.5551 100.566 97.9855
72 36 1 98.6845 100.962 98.1676
73 37 1 99.7114 102.428 102.615
74 37 1 99.2412 102.871 101.575
75 38 1 97.9032 101.372 97.3592
76 38 1 97.8019 101.829 102.187
77 39 1 100.163 101.488 98.2335
78 39 1 99.3335 101.286 99.0366
79 40 1 100.922 98.2882 100.863
80 40 1 99.9195 98.6849 101.168
81 41 1 101.067 97.1603 100.945
82 41 1 101.322 102.078 101.508
83 42 1 98.9065 102.133 99.4585
84 42 1 98.4908 97.2413 99.7324
85 43 1 100.751 99.3706 100.93
86 43 1 99.7499 99.6544 101.547
87 44 1 102.208 100.855 101.344
88 44 1 101.529 100.13 100.665
89 45 1 99.5094 98.9067 97.4834
90 45 1 100.25 99.4672 98.2389
91 46 1 97.2805 99.072 98.5319
92 46 1 97.3733 98.7497 99.7137
93 47 1 98.6838 97.3645 100.76
94 47 1 99.7957 102.762 100.644
95 48 1 97.9348 98.3115 98.2093
96 48 1 97.2649 98.3324 97.1704
97 49 1 97.782 97.852 99.1792
98 49 1 98.2165 98.9481 99.0959
99 50 1 102.131 100.561 102.59
100 50 1 101.127 101.011 97.1121
101 51 1 102.877 101.34 97.0038
102 51 1 102.964 102.298 102.255
103 52 1 101.892 101.671 97.1633
104 52 1 102.037 102 98.2599
105 53 1 100.37 98.8262 100.111
106 53 1 99.4912 98.0663 100.414
107 54 1 100.646 102.094 100.686
108 54 1 100.233 101.03 100.368
109 55 1 102.866 97.8777 101.19
110 55 1 101.978 98.0048 101.988
111 56 1 102.843 99.9105 98.0764
112 56 1 101.998 100.357 98.7626
113 57 1 102.105 99.5872 97.4115
114 57 1 102.239 98.5215 102.888
115 58 1 101.62 102.691 97.4872
116 58 1 101.497 97.7918 102.906
117 59 1 99.8334 102.307 98.8438
118 59 1 99.5762 97.1767 99.682
119 60 1 98.1652 98.8582 101.361
120 60 1 98.1155 99.3016 100.274
121 61 1 101.232 99.9843 102.774
122 61 1 101.254 100.841 101.977
123 62 1 102.573 101.928 101.272
124 62 1 102.168 101.319 100.341
125 63 1 98.1003 100.796 100.535
126 63 1 97.8121 100.637 101.664
127 64 1 102.568 98.7739 97.9468
128 64 1 96.9581 97.9374 98.5333
129 65 1 97.6576 100.062 98.9521
130 65 1 98.491 100.847 99.4859
131 66 1 98.529 99.9368 101.198
132 66 1 99.1656 100.418 102.032
133 67 1 99.7783 99.6971 100.489
134 67 1 100.529 100.369 101.182
135 68 1 97.9992 101.732 99.9322
136 68 1 97.7072 102.759 100.461
137 69 1 99.111 101.267 100.247
138 69 1 98.8507 100.062 100.173
139 70 1 100.48 98.2406 97.1142
140 70 1 101.288 98.9238 102.628
141 71 1 101.217 99.8886 97.9092
142 71 1 101.15 100.971 98.2381
143 72 1 101.659 102.967 98.551
144 72 1 102.345 97.6094 99.323
145 73 1 99.2352 98.977 98.6044
146 73 1 100.042 98.3641 99.2315
147 74 1 99.3028 99.9184 97.9367
148 74 1 98.8197 99.8887 99.0455
149 75 1 100.205 100.492 102.349
150 75 1 99.4723 101.412 102.1
151 76 1 100.669 99.9884 100.007
152 76 1 101.725 99.5508 99.6016
153 77 1 101.875 99.3657 98.5012
154 77 1 100.962 100.081 98.8972
155 78 1 97.0571 102.931 99.5734
156 78 1 102.119 102.446 99.4089
157 79 1 101.177 101.714 99.8926
158 79 1 100.599 102.673 99.5028
159 80 1 102.566 97.1537 100.394
160 80 1 97.4145 97.7723 100.177
161 81 2 98.3431 100.204 97.3328
162 82 2 97.7995 101.299 98.7741
163 83 2 101.777 102.362 100.566
164 84 2 97.4082 100.523 102.727
165 85 2 101.817 98.9741 100.581
166 86 2 98.2463 97.8497 97.2792
167 87 2 101.796 99.9217 101.674
168 88 2 100.329 102.475 101.669
169 89 2 99.079 98.1116 101.585
170 90 2 99.8988 101.944 99.9344
171 91 2 97.3976 100.076 100.028
172 92 2 98.748 102.249 100.519
173 93 2 98.9308 101.774 97.3037
174 94 2 101.22 101.197 100.813
175 95 2 98.9773 98.057 98.1144
176 96 2 102.498 98.2263 100.186
177 97 2 102.643 97.4232 102.758
178 98 2 100.33 100.465 97.5594
179 99 2 102.704 102.462 97.4475
180 100 2 99.8323 97.5396 98.6045
181 101 2 101.065 101.996 102.546
182 102 2 98.2442 99.4381 98.1107
183 103 2 102.029 101.372 99.1558
184 104 2 98.4397 98.2697 100.269
185 105 2 102.782 102.824 98.4804
186 106 2 100.499 97.6703 100.107
187 107 2 99.6458 100.407 99.6017
188 108 2 98.1303 98.3023 102.239
189 109 2 99.2073 99.0179 99.7642
190 110 2 101.376 98.7408 97.741
191 111 2 102.154 100.836 97.8102
192 112 2 102.125 102.907 101.459
193 113 2 98.5842 101.345 101.39
194 114 2 102.494 98.6565 99.2422
195 115 2 101.103 101.975 98.8662
196 116 2 100.036 99.4491 99.2608
197 117 2 99.9256 100.461 98.5837
198 118 2 97.0548 100.938 100.806
199 119 2 99.9158 98.7927 102.322
200 120 2 99.4791 100.698 101.055
ITEM: TIMESTEP
4000
ITEM: NUMBER OF ATOMS
200
ITEM: BOX BOUNDS pp pp pp
9.6906005377801620e+01 1.0309399462219838e+02
9.7027322642197717e+01 1.0297267735780228e+02
9.7027322642197717e+01 1.0297267735780228e+02
ITEM: ATOMS id mol type x y z
1 1 1 102.653 98.9571 101.432
2 1 1 97.4637 99.6702 101.209
3 2 1 101.822 98.2009 98.6114
4 2 1 101.088 97.7236 97.8347
5 3 1 100.954 98.8852 98.9203
6 3 1 100.213 98.349 98.1207
7 4 1 98.4656 101.096 102.451
8 4 1 98.306 99.9046 102.305
9 5 1 100.489 99.3281 97.2554
10 5 1 99.3588 99.7057 102.836
11 6 1 97.0379 102.809 101.335
12 6 1 97.7608 97.7774 101.228
13 7 1 98.828 97.272 102.433
14 7 1 98.9153 102.933 97.694
15 8 1 102.647 99.9864 100.933
16 8 1 102.414 100.373 99.8011
17 9 1 99.2743 100.771 97.1321
18 9 1 100.137 101.556 97.0836
19 10 1 102.859 99.7125 99.1693
20 10 1 103.018 100.793 98.7956
21 11 1 102.227 97.6568 97.7723
22 11 1 97.1951 97.3053 97.6599
23 12 1 102.63 99.2805 102.44
24 12 1 103.138 98.2257 102.063
25 13 1 96.9245 101.218 101.918
26 13 1 97.5386 101.806 101.073
27 14 1 100.513 101.389 101.603
28 14 1 99.5944 101.845 101.034
29 15 1 97.9123 102.433 99.0605
30 15 1 97.5363 102.279 97.9535
31 16 1 101.149 97.148 102.039
32 16 1 99.9837 97.5173 102.282
33 17 1 103.025 100.168 101.907
34 17 1 97.4739 99.1807 102.267
35 18 1 101.861 97.814 100.853
36 18 1 101.349 98.4169 99.8704
37 19 1 102.109 101.572 102.115
38 19 1 101.999 102.666 102.466
39 20 1 101.576 97.3442 99.8942
40 20 1 100.839 97.7688 99.0626
41 21 1 99.7935 97.5234 97.4568
42 21 1 99.1387 98.2507 102.713
43 22 1 97.5301 97.2883 102.268
44 22 1 98.0969 102.529 97.0738
45 23 1 98.5611 102.01 98.2957
46 23 1 98.0279 97.2319 98.2725
47 24 1 101.57 98.8221 101.569
48 24 1 100.739 99.59 102.033
49 25 1 100.479 101.194 99.2075
50 25 1 101.385 100.679 99.7681
51 26 1 97.0911 101.082 99.7808
52 26 1 102.883 102.132 100.176
53 27 1 100.69 102.798 98.288
54 27 1 100.638 97.0659 103.043
55 28 1 98.9388 99.0881 102.021
56 28 1 99.0099 99.004 100.791
57 29 1 102.981 101.543 98.0554
58 29 1 96.8958 101.925 99.1567
59 30 1 100.975 101.931 97.6742
60 30 1 99.8935 102.405 97.7381
61 31 1 102.641 99.2787 100.095
62 31 1 97.2635 98.706 100.729
63 32 1 97.3845 99.4392 97.4195
64 32 1 98.463 99.0355 97.1539
65 33 1 100.127 97.6409 101.251
66 33 1 100.855 98.1811 101.988
67 34 1 98.8951 97.015 98.811
68 34 1 98.8939 98.1341 99.1731
69 35 1 98.7122 102.126 102.301
70 35 1 98.0998 102.669 101.469
71 36 1 97.5943 100.54 98.0451
72 36 1 98.7097 100.947 98.1972
73 37 1 99.6931 102.474 102.587
74 37 1 99.1592 102.726 101.547
75 38 1 97.9057 101.379 97.3552
76 38 1 97.7507 101.838 102.162
77 39 1 100.177 101.432 98.146
78 39 1 99.4165 101.317 99.0238
79 40 1 100.937 98.2802 100.877
80 40 1 99.9144 98.6999 101.164
81 41 1 101.047 97.1466 100.914
82 41 1 101.369 102.08 101.514
83 42 1 98.8278 102.065 99.4765
84 42 1 98.4528 97.1871 99.7764
85 43 1 100.789 99.3626 100.995
86 43 1 99.7752 99.6632 101.583
87 44 1 102.199 100.889 101.331
88 44 1 101.541 100.134 100.681
89 45 1 99.5211 98.9047 97.5295
90 45 1 100.279 99.4242 98.2924
91 46 1 97.2562 99.0989 98.5409
92 46 1 97.3058 98.7389 99.6501
93 47 1 98.6364 97.3695 100.802
94 47 1 99.7358 102.854 100.63
95 48 1 97.9946 98.328 98.1726
96 48 1 97.249 98.3121 97.1877
97 49 1 97.7869 97.8481 99.1816