ITEM: TIMESTEP
0
ITEM: NUMBER OF ATOMS
200
ITEM: BOX BOUNDS pp pp pp
9.7024651561072162e+01 1.0297534843892784e+02
9.7024651561072162e+01 1.0297534843892784e+02
9.7024651561072162e+01 1.0297534843892784e+02
ITEM: ATOMS id mol type x y z
1 1 1 102.822 97.936 100.86
2 1 1 102.263 98.9513 100.813
3 2 1 97.9216 98.062 100.701
4 2 1 97.2169 97.0581 100.415
5 3 1 99.1567 99.9787 97.2498
6 3 1 100.366 99.8489 97.2302
7 4 1 99.5205 100.387 101.215
8 4 1 99.5261 101.3 102.008
9 5 1 98.8592 98.4237 102.349
10 5 1 98.7299 99.6163 102.171
11 6 1 97.2073 98.7303 101.568
12 6 1 102.168 99.1964 101.88
13 7 1 97.7066 102.331 102.085
14 7 1 98.6449 101.814 102.36
15 8 1 102.894 100.625 100.279
16 8 1 102.259 100.747 101.271
17 9 1 101.511 101.149 101.874
18 9 1 102.534 101.326 102.453
19 10 1 102.112 100.486 99.4843
20 10 1 101.748 101.543 99.092
21 11 1 97.6122 97.0761 98.8119
22 11 1 98.0105 97.094 97.7066
23 12 1 102.672 97.7506 101.886
24 12 1 97.844 97.933 102.335
25 13 1 98.9427 100.951 102.857
26 13 1 97.9814 101.261 97.5122
27 14 1 100.285 102.53 100.599
28 14 1 100.478 101.363 100.284
29 15 1 97.6494 101.28 98.8261
30 15 1 102.912 101.485 97.8218
31 16 1 100.376 102.856 102.795
32 16 1 100.588 101.754 102.35
33 17 1 101.588 102.186 101.906
34 17 1 102.652 102.58 102.149
35 18 1 100.35 98.0333 99.4865
36 18 1 101.556 97.8483 99.3765
37 19 1 97.5651 102.114 97.1799
38 19 1 98.4031 102.89 102.674
39 20 1 100.171 98.0313 98.4206
40 20 1 100.811 97.1741 98.945
41 21 1 99.5174 98.5086 97.4424
42 21 1 98.4042 98.0497 97.4174
43 22 1 97.713 97.7923 99.6511
44 22 1 97.2561 98.7647 99.2002
45 23 1 97.7023 102.14 98.2462
46 23 1 98.7335 102.683 98.4256
47 24 1 101.801 97.9618 101.21
48 24 1 101.065 98.7062 101.728
49 25 1 99.2581 102.197 99.2377
50 25 1 99.9948 101.257 99.3357
51 26 1 102.738 97.2706 99.4723
52 26 1 102.282 102.337 100.184
53 27 1 102.152 97.4606 98.6409
54 27 1 102.916 97.0812 97.8364
55 28 1 98.6423 102.728 101.648
56 28 1 98.2572 97.0635 100.556
57 29 1 97.2594 100.365 99.3157
58 29 1 102.709 101.461 99.5008
59 30 1 99.9785 101.898 98.5171
60 30 1 99.7098 102.644 97.6507
61 31 1 102.571 98.3544 99.9383
62 31 1 102.167 98.5953 98.8576
63 32 1 100.463 100.845 101.715
64 32 1 99.5772 100.293 102.281
65 33 1 98.6156 99.0828 97.2939
66 33 1 99.6136 99.2235 102.588
67 34 1 100.444 98.9446 97.9196
68 34 1 101.409 98.6828 97.3136
69 35 1 97.7212 101.313 102.438
70 35 1 102.936 101.709 101.575
71 36 1 99.4325 101.461 97.6953
72 36 1 98.6461 101.622 98.5781
73 37 1 99.6 102.062 102.724
74 37 1 99.6514 102.28 101.521
75 38 1 98.7525 99.7894 101.018
76 38 1 98.5519 100.703 101.796
77 39 1 100.742 97.0422 97.8835
78 39 1 99.815 102.957 98.6801
79 40 1 99.9467 97.8242 100.461
80 40 1 99.2388 98.6352 100.898
81 41 1 100.727 97.8149 102.294
82 41 1 101.832 98.2974 102.372
83 42 1 99.4179 102.01 100.252
84 42 1 98.7664 101.74 101.263
85 43 1 99.7395 99.5575 100.432
86 43 1 100.888 99.9726 100.146
87 44 1 100.251 100.022 99.2836
88 44 1 99.9478 98.9456 98.864
89 45 1 100.437 99.7542 102.101
90 45 1 101.103 100.547 102.599
91 46 1 101.676 100.486 98.4256
92 46 1 101.651 99.3328 98.1968
93 47 1 99.7771 97.2868 101.863
94 47 1 99.2832 97.0263 100.789
95 48 1 98.4727 99.7108 98.1134
96 48 1 97.3991 99.6258 98.6129
97 49 1 97.4398 99.0061 100.536
98 49 1 102.815 99.8151 101.198
99 50 1 102.115 100.361 102.394
100 50 1 101.348 99.439 102.503
101 51 1 97.2167 100.676 101.777
102 51 1 97.1506 100.552 97.0419
103 52 1 97.4795 99.5389 97.4655
104 52 1 97.9369 98.9744 102.433
105 53 1 98.5436 102.93 99.463
106 53 1 98.8713 97.8478 100.172
107 54 1 100.828 101.724 101.261
108 54 1 99.7522 101.362 101.011
109 55 1 102.204 98.1076 97.7395
110 55 1 97.1333 97.9695 98.5281
111 56 1 102.246 99.3277 97.1441
112 56 1 102.879 98.4872 102.603
113 57 1 102.36 99.7017 98.8862
114 57 1 102.754 98.9509 98.0334
115 58 1 97.3282 97.1219 102.766
116 58 1 97.3626 98.0502 97.4947
117 59 1 99.3517 97.4799 102.821
118 59 1 100.344 97.8971 97.3858
119 60 1 98.2722 98.8419 101.375
120 60 1 98.5265 99.1189 100.248
121 61 1 100.491 99.8589 101.103
122 61 1 101.17 100.805 100.881
123 62 1 101.968 101.764 101.05
124 62 1 97.0997 101.662 100.479
125 63 1 99.2609 97.6278 97.9853
126 63 1 99.0422 98.6696 98.4145
127 64 1 102.585 99.9809 97.8967
128 64 1 101.512 100.018 97.4421
129 65 1 98.282 100.425 98.9552
130 65 1 98.8887 101.229 99.5827
131 66 1 101.134 98.1957 100.32
132 66 1 100.683 97.694 101.242
133 67 1 100.507 99.073 99.8282
134 67 1 101.307 99.7965 99.1997
135 68 1 98.3693 101.908 100.249
136 68 1 97.8236 101.092 101.003
137 69 1 98.7757 100.914 100.664
138 69 1 97.8722 101.029 99.8482
139 70 1 101.878 101.677 98.066
140 70 1 101.531 101.492 102.881
141 71 1 102.166 100.849 97.4724
142 71 1 100.963 100.884 97.665
143 72 1 101.041 102.165 98.5338
144 72 1 101.844 102.757 97.8763
145 73 1 98.3502 98.5649 99.3932
146 73 1 99.2778 97.8787 99.0542
147 74 1 98.76 100.177 99.9685
148 74 1 97.9371 99.5166 99.5052
149 75 1 101.238 99.1673 100.776
150 75 1 101.939 100.068 100.479
151 76 1 99.3804 100.499 98.9232
152 76 1 99.5852 99.5949 98.1394
153 77 1 100.79 101.08 98.6373
154 77 1 99.9408 100.592 97.9766
155 78 1 101.674 102.683 99.3757
156 78 1 102.023 97.4786 100.265
157 79 1 101.256 102.065 100.195
158 79 1 100.905 97.218 100.036
159 80 1 101.603 97.2907 101.974
160 80 1 102.268 97.364 102.93
161 81 2 99.6721 99.3173 101.563
162 82 2 97.5029 102.244 99.4777
163 83 2 101.384 102.764 100.962
164 84 2 100.16 100.925 102.909
165 85 2 99.4232 98.6317 99.8108
166 86 2 98.342 97.8061 98.6346
167 87 2 102.374 102.819 101.191
168 88 2 100.686 102.72 101.735
169 89 2 98.779 97.7843 101.384
170 90 2 100.429 102.27 99.5244
171 91 2 102.737 99.5414 99.8578
172 92 2 97.7313 102.272 101.017
173 93 2 98.6023 102.181 97.5152
174 94 2 101.068 100.87 99.6393
175 95 2 100.533 98.7517 102.717
176 96 2 100.991 98.7461 98.9555
177 97 2 97.9921 98.7335 98.1935
178 98 2 101.53 100.002 101.578
179 99 2 97.5787 100.512 98.1312
180 100 2 101.214 97.9518 98.2173
181 101 2 102.384 102.254 97.1455
182 102 2 99.0596 99.4906 99.1651
183 103 2 101.974 101.164 100.201
184 104 2 101.336 102.528 102.869
185 105 2 102.585 102.311 98.6977
186 106 2 99.7346 97.0776 99.737
187 107 2 99.7664 100.552 100.073
188 108 2 97.5368 97.2781 101.416
189 109 2 97.8079 100.05 100.562
190 110 2 102.611 100.899 98.6314
191 111 2 97.0458 99.6336 102.283
192 112 2 101.298 97.5957 97.1623
193 113 2 98.1469 100.251 102.847
194 114 2 100.694 99.8961 98.2973
195 115 2 100.514 101.937 97.4521
196 116 2 98.7598 100.723 98.069
197 117 2 100.28 98.7412 100.877
198 118 2 97.8659 99.8208 101.637
199 119 2 99.925 98.3416 101.839
200 120 2 101.724 99.0744 99.8396
ITEM: TIMESTEP
1000
ITEM: NUMBER OF ATOMS
200
ITEM: BOX BOUNDS pp pp pp
9.6994748812127312e+01 1.0300525118787269e+02
9.7024651561072162e+01 1.0297534843892784e+02
9.7024651561072162e+01 1.0297534843892784e+02
ITEM: ATOMS id mol type x y z
1 1 1 102.887 97.8908 100.874
2 1 1 102.305 98.9062 100.784
3 2 1 97.8734 98.0165 100.654
4 2 1 97.2024 97.0168 100.397
5 3 1 99.1771 100.014 97.2521
6 3 1 100.349 99.8508 97.2373
7 4 1 99.6051 100.418 101.147
8 4 1 99.4938 101.254 101.991
9 5 1 98.8893 98.4625 102.249
10 5 1 98.6925 99.6422 102.162
11 6 1 97.2353 98.7226 101.529
12 6 1 102.19 99.2014 101.814
13 7 1 97.6219 102.264 102.098
14 7 1 98.6702 101.847 102.314
15 8 1 102.958 100.593 100.365
16 8 1 102.297 100.754 101.314
17 9 1 101.517 101.138 101.892
18 9 1 102.51 101.318 102.504
19 10 1 102.117 100.506 99.4953
20 10 1 101.801 101.59 99.1186
21 11 1 97.6442 97.1332 98.7816
22 11 1 98.0273 97.1496 97.6727
23 12 1 102.689 97.7546 101.902
24 12 1 97.846 97.8871 102.337
25 13 1 98.9097 101.02 102.905
26 13 1 97.9565 101.254 97.6111
27 14 1 100.27 102.543 100.711
28 14 1 100.509 101.409 100.311
29 15 1 97.5761 101.27 98.7756
30 15 1 102.945 101.456 97.7337
31 16 1 100.382 102.859 102.787
32 16 1 100.604 101.724 102.322
33 17 1 101.6 102.185 101.956
34 17 1 102.661 102.619 102.112
35 18 1 100.41 98.037 99.5013
36 18 1 101.582 97.8986 99.4028
37 19 1 97.5995 102.187 97.2364
38 19 1 98.4173 102.891 102.67
39 20 1 100.136 98.0543 98.4821
40 20 1 100.897 97.1779 98.9415
41 21 1 99.5077 98.5823 97.4629
42 21 1 98.4486 98.0758 97.3601
43 22 1 97.7307 97.6964 99.6485
44 22 1 97.299 98.7542 99.2814
45 23 1 97.6886 102.152 98.2401
46 23 1 98.7363 102.739 98.3872
47 24 1 101.798 97.9706 101.241
48 24 1 101.048 98.7759 101.683
49 25 1 99.2569 102.229 99.1817
50 25 1 100.023 101.288 99.3496
51 26 1 102.779 97.2217 99.4594
52 26 1 102.273 102.358 100.205
53 27 1 102.205 97.5123 98.652
54 27 1 103.01 97.1032 97.8814
55 28 1 98.5588 102.699 101.667
56 28 1 98.2299 97.0113 100.587
57 29 1 97.218 100.37 99.3092
58 29 1 102.792 101.473 99.4741
59 30 1 100.084 101.93 98.5399
60 30 1 99.6986 102.674 97.6862
61 31 1 102.586 98.3377 99.9343
62 31 1 102.192 98.579 98.8484
63 32 1 100.476 100.801 101.729
64 32 1 99.5253 100.274 102.213
65 33 1 98.5578 99.1347 97.2709
66 33 1 99.5618 99.2228 102.586
67 34 1 100.426 98.9317 97.9531
68 34 1 101.379 98.673 97.2985
69 35 1 97.7231 101.28 102.509
70 35 1 102.936 101.617 101.547
71 36 1 99.4473 101.53 97.794
72 36 1 98.5863 101.615 98.5946
73 37 1 99.6726 102.001 102.801
74 37 1 99.6527 102.261 101.641
75 38 1 98.7068 99.8803 101.065
76 38 1 98.4901 100.732 101.887
77 39 1 100.776 97.0379 97.8976
78 39 1 99.8718 102.969 98.7074
79 40 1 99.9854 97.7361 100.468
80 40 1 99.2362 98.5331 100.919
81 41 1 100.773 97.8385 102.3
82 41 1 101.87 98.2859 102.313
83 42 1 99.4528 102.023 100.208
84 42 1 98.7743 101.771 101.235
85 43 1 99.7294 99.5511 100.348
86 43 1 100.92 99.9887 100.125
87 44 1 100.26 100.12 99.2823
88 44 1 99.9979 99.0049 98.9222
89 45 1 100.429 99.7316 102.088
90 45 1 101.082 100.54 102.622
91 46 1 101.663 100.434 98.4208
92 46 1 101.704 99.2232 98.1536
93 47 1 99.7499 97.3554 101.833
94 47 1 99.2229 96.9604 100.865
95 48 1 98.3885 99.7273 98.137
96 48 1 97.309 99.5648 98.6267
97 49 1 97.4537 98.9907 100.5
98 49 1 102.87 99.827 101.161
99 50 1 102.12 100.272 102.454
100 50 1 101.366 99.3829 102.475
101 51 1 97.1934 100.628 101.846
102 51 1 97.0734 100.546 97.0648
103 52 1 97.486 99.475 97.3669
104 52 1 97.9259 98.9105 102.367
105 53 1 98.4872 102.917 99.4458
106 53 1 98.8088 97.8021 100.181
107 54 1 100.863 101.736 101.268
108 54 1 99.7511 101.423 100.983
109 55 1 102.203 98.1151 97.7755
110 55 1 97.1167 98.0039 98.528
111 56 1 102.236 99.2818 97.1469
112 56 1 102.951 98.5188 102.553
113 57 1 102.324 99.666 98.8454
114 57 1 102.788 98.9291 97.9779
115 58 1 97.3074 97.1243 102.786
116 58 1 97.2928 98.0773 97.4632
117 59 1 99.3177 97.5698 102.843
118 59 1 100.321 97.9026 97.4348
119 60 1 98.3154 98.8881 101.354
120 60 1 98.6325 99.1812 100.235
121 61 1 100.452 99.826 101.04
122 61 1 101.2 100.748 100.829
123 62 1 101.987 101.802 101.066
124 62 1 97.0337 101.642 100.472
125 63 1 99.279 97.625 97.9654
126 63 1 98.9961 98.6895 98.3838
127 64 1 102.587 99.9819 97.8524
128 64 1 101.447 99.9215 97.4225
129 65 1 98.2812 100.493 98.9942
130 65 1 98.9001 101.297 99.6161
131 66 1 101.154 98.2546 100.336
132 66 1 100.723 97.6877 101.231
133 67 1 100.55 99.0651 99.8533
134 67 1 101.283 99.7992 99.1251
135 68 1 98.3018 101.88 100.307
136 68 1 97.7614 100.983 101.021
137 69 1 98.7569 100.91 100.706
138 69 1 97.8094 101.017 99.8918
139 70 1 101.946 101.721 98.0389
140 70 1 101.476 101.497 102.943
141 71 1 102.074 100.805 97.4769
142 71 1 100.912 100.823 97.6678
143 72 1 101.095 102.163 98.5345
144 72 1 101.895 102.821 97.9039
145 73 1 98.3695 98.524 99.3777
146 73 1 99.2684 97.8691 99.0939
147 74 1 98.7654 100.208 99.936
148 74 1 97.999 99.5414 99.398
149 75 1 101.299 99.2041 100.705
150 75 1 102.009 100.077 100.48
151 76 1 99.3103 100.5 98.9854
152 76 1 99.491 99.6485 98.1919
153 77 1 100.759 101.066 98.6478
154 77 1 99.8805 100.603 97.9883
155 78 1 101.804 102.714 99.3328
156 78 1 102.034 97.4844 100.272
157 79 1 101.297 102.087 100.081
158 79 1 100.863 97.2148 99.9906
159 80 1 101.671 97.2491 101.996
160 80 1 102.306 97.4146 102.933
161 81 2 99.6162 99.3156 101.515
162 82 2 97.5207 102.235 99.474
163 83 2 101.312 102.774 100.88
164 84 2 100.11 100.898 102.921
165 85 2 99.4394 98.5781 99.8415
166 86 2 98.3141 97.8771 98.5551
167 87 2 102.309 102.829 101.161
168 88 2 100.725 102.739 101.78
169 89 2 98.7196 97.7481 101.386
170 90 2 100.444 102.281 99.4991
171 91 2 102.783 99.5334 99.8432
172 92 2 97.7062 102.202 101.084
173 93 2 98.6529 102.148 97.5211
174 94 2 101.128 100.882 99.6394
175 95 2 100.503 98.7692 102.742
176 96 2 101.006 98.7784 98.9512
177 97 2 97.9641 98.7503 98.1288
178 98 2 101.446 100.004 101.606
179 99 2 97.5044 100.454 98.1276
180 100 2 101.235 98.0226 98.2279
181 101 2 102.418 102.269 97.1716
182 102 2 99.0082 99.4623 99.1061
183 103 2 101.981 101.202 100.239
184 104 2 101.42 102.546 102.941
185 105 2 102.731 102.348 98.6111
186 106 2 99.6735 97.0302 99.8007
187 107 2 99.7395 100.591 100.104
188 108 2 97.5 97.2512 101.447
189 109 2 97.8379 99.9693 100.478
190 110 2 102.577 100.852 98.5969
191 111 2 97.0164 99.5779 102.331
192 112 2 101.306 97.6177 97.1816
193 113 2 98.1385 100.258 102.955
194 114 2 100.629 99.9112 98.2981
195 115 2 100.557 101.94 97.4492
196 116 2 98.7375 100.714 98.0467
197 117 2 100.325 98.7567 100.872
198 118 2 97.7937 99.7972 101.627
199 119 2 99.9628 98.3566 101.851
200 120 2 101.753 99.1092 99.7571
ITEM: TIMESTEP
2000
ITEM: NUMBER OF ATOMS
200
ITEM: BOX BOUNDS pp pp pp
9.6964545535559310e+01 1.0303545446444069e+02
9.7024651561072162e+01 1.0297534843892784e+02
9.7024651561072162e+01 1.0297534843892784e+02
ITEM: ATOMS id mol type x y z
1 1 1 102.861 97.9306 100.827
2 1 1 102.317 98.9864 100.883
3 2 1 97.8618 98.0276 100.75
4 2 1 97.227 97.0317 100.405
5 3 1 99.1558 99.9314 97.2281
6 3 1 100.327 99.8188 97.2246
7 4 1 99.4763 100.344 101.148
8 4 1 99.3973 101.223 101.946
9 5 1 98.8376 98.3468 102.377
10 5 1 98.6649 99.5374 102.129
11 6 1 97.1675 98.6016 101.588
12 6 1 102.312 99.3102 101.954
13 7 1 97.6727 102.318 102.154
14 7 1 98.7395 101.979 102.281
15 8 1 102.974 100.7 100.311
16 8 1 102.342 100.754 101.308
17 9 1 101.518 101.189 101.84
18 9 1 102.551 101.34 102.363
19 10 1 102.183 100.52 99.5
20 10 1 101.815 101.632 99.1466
21 11 1 97.55 97.0886 98.8238
22 11 1 97.9548 97.0688 97.7052
23 12 1 102.719 97.727 101.972
24 12 1 97.7763 97.8801 102.353
25 13 1 98.8974 100.987 102.868
26 13 1 97.9902 101.213 97.5839
27 14 1 100.351 102.463 100.626
28 14 1 100.521 101.344 100.263
29 15 1 97.5619 101.258 98.8036
30 15 1 103.024 101.44 97.7663
31 16 1 100.41 102.856 102.793
32 16 1 100.678 101.776 102.353
33 17 1 101.629 102.217 101.924
34 17 1 102.699 102.546 102.13
35 18 1 100.351 98.1312 99.5313
36 18 1 101.552 97.9032 99.3936
37 19 1 97.559 102.129 97.2264
38 19 1 98.3917 102.93 102.724
39 20 1 100.162 98.0585 98.469
40 20 1 100.782 97.2227 99.0488
41 21 1 99.5308 98.5095 97.4201
42 21 1 98.4402 97.9908 97.3858
43 22 1 97.7245 97.7318 99.6555
44 22 1 97.1617 98.7501 99.3287
45 23 1 97.6454 102.163 98.2763
46 23 1 98.7533 102.671 98.3812
47 24 1 101.856 98 101.221
48 24 1 100.966 98.7068 101.686
49 25 1 99.2465 102.147 99.2063
50 25 1 100.043 101.254 99.3654
51 26 1 102.818 97.2227 99.4821
52 26 1 102.279 102.373 100.173
53 27 1 102.243 97.5432 98.7053
54 27 1 102.999 97.0259 97.9318
55 28 1 98.5048 102.829 101.615
56 28 1 98.3277 97.0262 100.487
57 29 1 97.1921 100.353 99.3072
58 29 1 102.799 101.417 99.4723
59 30 1 100.022 101.869 98.5023
60 30 1 99.6897 102.64 97.6772
61 31 1 102.439 98.405 99.9552
62 31 1 102.14 98.6281 98.8075
63 32 1 100.419 100.834 101.766
64 32 1 99.4956 100.221 102.246
65 33 1 98.5823 99.0383 97.2736
66 33 1 99.5427 99.1529 102.543
67 34 1 100.484 98.9707 97.9232
68 34 1 101.419 98.6484 97.3346
69 35 1 97.7528 101.314 102.411
70 35 1 103.103 101.654 101.526
71 36 1 99.3654 101.496 97.7325
72 36 1 98.563 101.581 98.6104
73 37 1 99.6369 102.001 102.791
74 37 1 99.7588 102.172 101.629
75 38 1 98.7111 99.6435 101.025
76 38 1 98.4412 100.564 101.734
77 39 1 100.779 97.0368 97.9597
78 39 1 99.8012 102.924 98.6866
79 40 1 99.8372 97.7917 100.452
80 40 1 99.188 98.6594 100.851
81 41 1 100.757 97.8151 102.287
82 41 1 101.834 98.3436 102.342
83 42 1 99.5163 101.973 100.193
84 42 1 98.8406 101.907 101.213
85 43 1 99.7601 99.5805 100.406
86 43 1 100.923 100.05 100.142
87 44 1 100.332 100.195 99.2104
88 44 1 99.9649 99.1019 98.8917
89 45 1 100.433 99.6791 102.109
90 45 1 101.027 100.597 102.552
91 46 1 101.701 100.528 98.3802
92 46 1 101.671 99.3495 98.1203
93 47 1 99.7279 97.2372 101.911
94 47 1 99.3355 96.9005 100.859
95 48 1 98.3968 99.6706 98.1016
96 48 1 97.3397 99.5697 98.6281
97 49 1 97.3278 98.9135 100.519
98 49 1 102.883 99.8518 101.135
99 50 1 102.122 100.329 102.423
100 50 1 101.361 99.3981 102.496
101 51 1 97.2152 100.637 101.819
102 51 1 97.0693 100.604 97.053
103 52 1 97.5432 99.4836 97.4876
104 52 1 97.8537 98.9015 102.462
105 53 1 98.5311 102.946 99.4144
106 53 1 98.7678 97.8987 100.146
107 54 1 100.929 101.755 101.178
108 54 1 99.8035 101.341 100.989
109 55 1 102.239 98.0848 97.7814
110 55 1 97.1116 98.0013 98.5837
111 56 1 102.239 99.2787 97.1856
112 56 1 102.893 98.5325 102.627
113 57 1 102.406 99.7157 98.8544
114 57 1 102.859 98.9 98.0111
115 58 1 97.2422 97.0754 102.811
116 58 1 97.3295 98.0189 97.5
117 59 1 99.3399 97.4416 102.904
118 59 1 100.362 97.8653 97.4223
119 60 1 98.2399 98.7763 101.442
120 60 1 98.3601 98.9698 100.258
121 61 1 100.439 99.9708 101.094
122 61 1 101.264 100.774 100.863
123 62 1 102.105 101.794 101.101
124 62 1 97.0606 101.777 100.446
125 63 1 99.2974 97.6226 98.0122
126 63 1 99.0207 98.6971 98.3909
127 64 1 102.64 99.9831 97.8172
128 64 1 101.495 100.052 97.3897
129 65 1 98.2488 100.402 98.9982
130 65 1 98.8943 101.197 99.6196
131 66 1 101.232 98.2713 100.319
132 66 1 100.64 97.7008 101.205
133 67 1 100.535 99.1471 99.7899
134 67 1 101.32 99.8459 99.0897
135 68 1 98.3435 101.942 100.238
136 68 1 97.7822 101.071 100.929
137 69 1 98.7898 100.991 100.656
138 69 1 97.8767 101.001 99.8293
139 70 1 101.969 101.727 98.0689
140 70 1 101.528 101.525 102.919
141 71 1 102.158 100.89 97.4688
142 71 1 100.945 100.862 97.6476
143 72 1 101.1 102.155 98.5545
144 72 1 101.862 102.85 97.9327
145 73 1 98.2649 98.5658 99.261
146 73 1 99.213 97.8711 99.1222
147 74 1 98.7596 100.141 100.025
148 74 1 97.8757 99.5425 99.5259
149 75 1 101.24 99.2335 100.762
150 75 1 102.021 100.118 100.53
151 76 1 99.36 100.551 98.9662
152 76 1 99.4992 99.6945 98.1674
153 77 1 100.833 101.098 98.6718
154 77 1 99.9464 100.709 98.0292
155 78 1 101.684 102.703 99.315
156 78 1 102.039 97.4597 100.245
157 79 1 101.245 102.079 100.113
158 79 1 100.846 97.2657 100.103
159 80 1 101.646 97.3205 102.028
160 80 1 102.353 97.3656 102.954
161 81 2 99.6622 99.2924 101.516
162 82 2 97.4431 102.24 99.4831
163 83 2 101.389 102.764 100.949
164 84 2 100.085 100.939 102.91
165 85 2 99.3394 98.6855 99.7857
166 86 2 98.3109 97.778 98.5812
167 87 2 102.414 102.855 101.197
168 88 2 100.728 102.746 101.733
169 89 2 98.8172 97.7782 101.317
170 90 2 100.43 102.239 99.4653
171 91 2 102.765 99.5584 99.9107
172 92 2 97.7441 102.253 101.062
173 93 2 98.6055 102.127 97.4852
174 94 2 101.218 100.923 99.6321
175 95 2 100.484 98.7265 102.728
176 96 2 101.014 98.7975 98.8928
177 97 2 97.9777 98.7137 98.1366
178 98 2 101.489 100.021 101.587
179 99 2 97.5417 100.452 98.1481
180 100 2 101.235 97.9798 98.2785
181 101 2 102.438 102.204 97.2162
182 102 2 99.0302 99.5012 99.1091
183 103 2 102.043 101.238 100.252
184 104 2 101.437 102.546 102.907
185 105 2 102.644 102.304 98.6768
186 106 2 99.717 97.0157 99.7467
187 107 2 99.7847 100.577 100.105
188 108 2 97.3837 97.2357 101.422
189 109 2 97.7915 100.04 100.558
190 110 2 102.69 100.86 98.5732
191 111 2 97.0715 99.7019 102.477
192 112 2 101.322 97.5974 97.1894
193 113 2 98.0879 100.221 102.833
194 114 2 100.662 99.9453 98.2328
195 115 2 100.58 101.955 97.4624
196 116 2 98.7409 100.65 98.0572
197 117 2 100.263 98.7035 100.777
198 118 2 97.7632 99.6914 101.573
199 119 2 99.8611 98.2815 101.752
200 120 2 101.696 99.1942 99.7821
ITEM: TIMESTEP
3000
ITEM: NUMBER OF ATOMS
200
ITEM: BOX BOUNDS pp pp pp
9.6934038711015290e+01 1.0306596128898471e+02
9.7024651561072162e+01 1.0297534843892784e+02
9.7024651561072162e+01 1.0297534843892784e+02
ITEM: ATOMS id mol type x y z
1 1 1 102.887 97.949 100.854
2 1 1 102.29 98.9369 100.764
3 2 1 97.8298 98.0004 100.712
4 2 1 97.1188 97.0151 100.441
5 3 1 99.1084 100.039 97.2293
6 3 1 100.295 99.8698 97.2834
7 4 1 99.5409 100.43 101.208
8 4 1 99.4962 101.287 101.997
9 5 1 98.8056 98.4344 102.31
10 5 1 98.677 99.6133 102.134
11 6 1 97.0944 98.7603 101.544
12 6 1 102.083 99.0961 101.768
13 7 1 97.5901 102.275 102.127
14 7 1 98.6418 101.845 102.313
15 8 1 103.034 100.613 100.368
16 8 1 102.373 100.753 101.31
17 9 1 101.532 101.164 101.865
18 9 1 102.608 101.247 102.434
19 10 1 102.128 100.452 99.4402
20 10 1 101.84 101.576 99.0861
21 11 1 97.5338 97.1149 98.805
22 11 1 97.9229 97.1037 97.6913
23 12 1 102.744 97.7572 101.937
24 12 1 97.7698 97.9491 102.299
25 13 1 98.9521 101.05 102.903
26 13 1 97.9647 101.288 97.5607
27 14 1 100.268 102.441 100.666
28 14 1 100.545 101.375 100.291
29 15 1 97.5416 101.29 98.8496
30 15 1 103.052 101.497 97.8612
31 16 1 100.4 102.896 102.803
32 16 1 100.631 101.78 102.305
33 17 1 101.646 102.204 101.889
34 17 1 102.723 102.576 102.101
35 18 1 100.348 98.0013 99.5145
36 18 1 101.549 97.8331 99.3552
37 19 1 97.4942 102.181 97.2305
38 19 1 98.3554 102.947 102.687
39 20 1 100.182 97.9833 98.4701
40 20 1 100.813 97.1523 99.0347
41 21 1 99.4949 98.5792 97.4414
42 21 1 98.3979 98.0219 97.3575
43 22 1 97.72 97.7165 99.6658
44 22 1 97.2012 98.7692 99.3067
45 23 1 97.6955 102.184 98.2858
46 23 1 98.7556 102.729 98.4074
47 24 1 101.888 98.0346 101.253
48 24 1 101.021 98.7302 101.74
49 25 1 99.2663 102.104 99.1216
50 25 1 100.063 101.215 99.2986
51 26 1 102.805 97.327 99.5353
52 26 1 102.328 102.4 100.178
53 27 1 102.286 97.4868 98.671
54 27 1 103.039 97.013 97.8876
55 28 1 98.459 102.684 101.669
56 28 1 98.2137 97.0198 100.506
57 29 1 97.1851 100.382 99.3472
58 29 1 102.794 101.441 99.4903
59 30 1 100.06 101.906 98.4621
60 30 1 99.6569 102.678 97.6622
61 31 1 102.623 98.3549 99.9214
62 31 1 102.189 98.5814 98.8209
63 32 1 100.483 100.803 101.775
64 32 1 99.5425 100.281 102.279
65 33 1 98.5843 99.1024 97.2545
66 33 1 99.597 99.2737 102.588
67 34 1 100.417 98.9242 97.9599
68 34 1 101.411 98.6927 97.3327
69 35 1 97.6407 101.299 102.467
70 35 1 103.045 101.632 101.525
71 36 1 99.3994 101.508 97.7854
72 36 1 98.5096 101.637 98.5696
73 37 1 99.5952 101.995 102.796
74 37 1 99.7331 102.24 101.648
75 38 1 98.7316 99.7675 101.055
76 38 1 98.5047 100.719 101.728
77 39 1 100.667 97.0087 97.9778
78 39 1 99.7885 102.908 98.7326
79 40 1 99.896 97.7357 100.497
80 40 1 99.1648 98.6062 100.941
81 41 1 100.775 97.8285 102.34
82 41 1 101.94 98.2765 102.431
83 42 1 99.4181 101.935 100.157
84 42 1 98.7902 101.826 101.188
85 43 1 99.7519 99.588 100.396
86 43 1 100.93 99.9994 100.149
87 44 1 100.312 100.175 99.2642
88 44 1 99.9581 99.0857 98.9362
89 45 1 100.452 99.7344 102.069
90 45 1 101.076 100.545 102.622
91 46 1 101.732 100.465 98.4528
92 46 1 101.728 99.2832 98.1921
93 47 1 99.7231 97.3135 101.883
94 47 1 99.2153 96.864 100.89
95 48 1 98.3865 99.7455 98.1034
96 48 1 97.364 99.5768 98.5976
97 49 1 97.3891 98.9442 100.467
98 49 1 102.935 99.8218 101.084
99 50 1 102.12 100.297 102.429
100 50 1 101.333 99.4121 102.486
101 51 1 97.2176 100.612 101.77
102 51 1 97.0584 100.44 97.0119
103 52 1 97.4993 99.5579 97.431
104 52 1 97.8711 98.992 102.434
105 53 1 98.5439 102.872 99.4388
106 53 1 98.8256 97.8354 100.196
107 54 1 100.9 101.723 101.242
108 54 1 99.8016 101.412 101.02
109 55 1 102.229 98.1299 97.8182
110 55 1 97.0914 98.0526 98.5263
111 56 1 102.29 99.227 97.1467
112 56 1 103.021 98.5578 102.575
113 57 1 102.471 99.6696 98.8628
114 57 1 102.913 98.9203 98.0108
115 58 1 97.2372 97.1147 102.76
116 58 1 97.29 98.0607 97.5041
117 59 1 99.3614 97.6072 102.843
118 59 1 100.365 97.8696 97.4679
119 60 1 98.202 98.7956 101.416
120 60 1 98.4238 99.0204 100.275
121 61 1 100.481 99.9277 101.059
122 61 1 101.296 100.786 100.833
123 62 1 102.081 101.798 101.037
124 62 1 96.9942 101.698 100.416
125 63 1 99.2613 97.6498 97.9704
126 63 1 99.0362 98.6687 98.4171
127 64 1 102.635 99.9429 97.8583
128 64 1 101.538 99.96 97.4245
129 65 1 98.2097 100.45 99.0091
130 65 1 98.8698 101.23 99.6215
131 66 1 101.15 98.2369 100.263
132 66 1 100.726 97.7585 101.222
133 67 1 100.59 99.0804 99.8525
134 67 1 101.297 99.8046 99.1649
135 68 1 98.2967 101.947 100.266
136 68 1 97.7305 101.107 100.984
137 69 1 98.7418 100.93 100.65
138 69 1 97.8237 101.08 99.9066
139 70 1 102.013 101.761 98.0144
140 70 1 101.552 101.503 102.888
141 71 1 102.226 100.845 97.4959
142 71 1 101.023 100.863 97.6451
143 72 1 101.108 102.154 98.485
144 72 1 101.932 102.81 97.8979
145 73 1 98.2937 98.5369 99.3464
146 73 1 99.1811 97.7896 99.1136
147 74 1 98.8242 100.146 99.9683
148 74 1 97.9007 99.5423 99.5126
149 75 1 101.263 99.1895 100.797
150 75 1 102.022 100.056 100.466
151 76 1 99.3731 100.461 98.9832
152 76 1 99.537 99.6573 98.1009
153 77 1 100.881 101.087 98.653
154 77 1 99.9124 100.66 98.0551
155 78 1 101.802 102.725 99.2934
156 78 1 101.979 97.4813 100.273
157 79 1 101.32 102.055 100.043
158 79 1 100.82 97.2314 100.119
159 80 1 101.672 97.2719 101.993
160 80 1 102.406 97.3949 102.924
161 81 2 99.686 99.3272 101.536
162 82 2 97.3861 102.281 99.5174
163 83 2 101.339 102.748 100.889
164 84 2 100.11 100.954 102.955
165 85 2 99.3883 98.6284 99.7911
166 86 2 98.2591 97.8397 98.5606
167 87 2 102.383 102.863 101.142
168 88 2 100.728 102.779 101.741
169 89 2 98.6787 97.7083 101.391
170 90 2 100.416 102.215 99.4863
171 91 2 102.819 99.5575 99.8995
172 92 2 97.6497 102.251 101.049
173 93 2 98.6054 102.162 97.4871
174 94 2 101.199 100.902 99.6189
175 95 2 100.494 98.7486 102.755
176 96 2 101.004 98.7547 98.9395
177 97 2 97.9901 98.7493 98.1185
178 98 2 101.507 100.03 101.595
179 99 2 97.4834 100.479 98.1667
180 100 2 101.24 97.9474 98.2316
181 101 2 102.474 102.272 97.1194
182 102 2 98.9574 99.4939 99.0769
183 103 2 102.045 101.171 100.196
184 104 2 101.457 102.536 102.873
185 105 2 102.701 102.281 98.6798
186 106 2 99.6891 96.9727 99.8109
187 107 2 99.8017 100.621 100.126
188 108 2 97.4144 97.282 101.438
189 109 2 97.819 100.035 100.559
190 110 2 102.675 100.884 98.6106
191 111 2 96.9049 99.5993 102.224
192 112 2 101.361 97.5532 97.206
193 113 2 98.0912 100.294 102.818
194 114 2 100.727 99.9552 98.2618
195 115 2 100.572 101.925 97.4222
196 116 2 98.7025 100.733 98.0806
197 117 2 100.303 98.7168 100.896
198 118 2 97.7682 99.7249 101.577
199 119 2 99.8912 98.3587 101.884
200 120 2 101.779 99.1092 99.7754
ITEM: TIMESTEP
4000
ITEM: NUMBER OF ATOMS
200
ITEM: BOX BOUNDS pp pp pp
9.6903225287787407e+01 1.0309677471221259e+02
9.7024651561072162e+01 1.0297534843892784e+02
9.7024651561072162e+01 1.0297534843892784e+02
ITEM: ATOMS id mol type x y z
1 1 1 102.941 97.991 100.832
2 1 1 102.341 99.0065 100.83
3 2 1 97.8431 97.9921 100.705
4 2 1 97.1553 96.9932 100.404
5 3 1 99.1715 100.008 97.2605
6 3 1 100.375 99.8652 97.2288
7 4 1 99.5209 100.386 101.13
8 4 1 99.4676 101.251 101.968
9 5 1 98.8297 98.3364 102.293
10 5 1 98.6128 99.5147 102.203
11 6 1 97.0901 98.7074 101.548
12 6 1 102.295 99.2591 101.916
13 7 1 97.621 102.352 102.142
14 7 1 98.7009 101.892 102.261
15 8 1 103.02 100.593 100.33
16 8 1 102.397 100.771 101.336
17 9 1 101.488 101.162 101.797
18 9 1 102.544 101.337 102.347
19 10 1 102.172 100.511 99.4178
20 10 1 101.893 101.645 99.1445
21 11 1 97.519 97.1063 98.8298
22 11 1 97.8971 97.08 97.722
23 12 1 102.778 97.7411 101.998
24 12 1 97.7406 97.8333 102.323
25 13 1 98.8671 100.977 102.828
26 13 1 97.9752 101.252 97.6173
27 14 1 100.249 102.492 100.682
28 14 1 100.484 101.377 100.314
29 15 1 97.5824 101.264 98.847
30 15 1 103.119 101.529 97.8433
31 16 1 100.448 102.832 102.777
32 16 1 100.57 101.718 102.357
33 17 1 101.642 102.212 101.884
34 17 1 102.751 102.553 102.098
35 18 1 100.386 98.0302 99.5425
36 18 1 101.593 97.8723 99.4242
37 19 1 97.5321 102.136 97.2124
38 19 1 98.3507 102.947 102.732
39 20 1 100.189 98.0272 98.4925
40 20 1 100.874 97.1919 99.0342
41 21 1 99.4874 98.4954 97.4067
42 21 1 98.3623 98.0009 97.4059
43 22 1 97.7029 97.6836 99.7116
44 22 1 97.1196 98.7138 99.3465
45 23 1 97.6579 102.197 98.3193
46 23 1 98.7904 102.698 98.3174
47 24 1 101.911 98.0157 101.243
48 24 1 101.089 98.7255 101.722
49 25 1 99.2503 102.136 99.1486
50 25 1 100.065 101.23 99.3037
51 26 1 102.855 97.2932 99.4886
52 26 1 102.381 102.351 100.167
53 27 1 102.232 97.5354 98.6568
54 27 1 102.996 97.1668 97.8621
55 28 1 98.4297 102.806 101.646
56 28 1 98.1891 97.0301 100.489
57 29 1 97.1107 100.368 99.3282
58 29 1 102.869 101.464 99.4735
59 30 1 100.062 101.848 98.4615
60 30 1 99.6735 102.611 97.6384
61 31 1 102.476 98.383 99.944
62 31 1 102.278 98.6486 98.8197
63 32 1 100.468 100.786 101.698
64 32 1 99.5016 100.249 102.215
65 33 1 98.5829 99.0423 97.2827
66 33 1 99.5697 99.224 102.604
67 34 1 100.433 98.9086 97.9036
68 34 1 101.352 98.7009 97.2726
69 35 1 97.7572 101.335 102.438
70 35 1 103.126 101.684 101.6
71 36 1 99.4152 101.461 97.7028
72 36 1 98.5527 101.615 98.5356
73 37 1 99.6096 101.978 102.738
74 37 1 99.6515 102.275 101.6
75 38 1 98.6314 99.7985 101.142
76 38 1 98.4441 100.71 101.838
77 39 1 100.752 97.0087 97.9473
78 39 1 99.8489 102.985 98.7152
79 40 1 99.9529 97.7421 100.537
80 40 1 99.206 98.6154 100.923
81 41 1 100.75 97.8329 102.317
82 41 1 101.897 98.3291 102.374
83 42 1 99.4011 102.037 100.183
84 42 1 98.7526 101.829 101.193
85 43 1 99.7769 99.6082 100.315
86 43 1 100.91 100.015 100.147
87 44 1 100.265 100.151 99.3123
88 44 1 100.028 99.042 98.9003
89 45 1 100.405 99.7527 102.106
90 45 1 101.109 100.522 102.546
91 46 1 101.755 100.448 98.3564
92 46 1 101.775 99.2661 98.1218
93 47 1 99.7583 97.3503 101.752
94 47 1 99.1924 96.9208 100.851
95 48 1 98.4269 99.6659 98.1364
96 48 1 97.3243 99.5663 98.6367
97 49 1 97.2996 98.9444 100.527