Generated by ZY

200 atoms
2 atom types
80 bonds
1 bond types

0.0000000000000000 200.0000000000000000 xlo xhi
0.0000000000000000 200.0000000000000000 ylo yhi
0.0000000000000000 200.0000000000000000 zlo zhi

Masses

1 1.000
2 1.500

Atoms # full

1 1 1 0.000000 0.000000 0.000000 0.000000 0 0 0
2 1 1 0.000000 1.200000 0.000000 0.000000 0 0 0
3 2 1 0.000000 0.000000 0.000000 40.000000 0 0 0
4 2 1 0.000000 1.200000 0.000000 40.000000 0 0 0
5 3 1 0.000000 0.000000 0.000000 80.000000 0 0 0
6 3 1 0.000000 1.200000 0.000000 80.000000 0 0 0
7 4 1 0.000000 0.000000 0.000000 120.000000 0 0 0
8 4 1 0.000000 1.200000 0.000000 120.000000 0 0 0
9 5 1 0.000000 0.000000 0.000000 160.000000 0 0 0
10 5 1 0.000000 1.200000 0.000000 160.000000 0 0 0
11 6 1 0.000000 0.000000 40.000000 0.000000 0 0 0
12 6 1 0.000000 1.200000 40.000000 0.000000 0 0 0
13 7 1 0.000000 0.000000 40.000000 40.000000 0 0 0
14 7 1 0.000000 1.200000 40.000000 40.000000 0 0 0
15 8 1 0.000000 0.000000 40.000000 80.000000 0 0 0
16 8 1 0.000000 1.200000 40.000000 80.000000 0 0 0
17 9 1 0.000000 0.000000 40.000000 120.000000 0 0 0
18 9 1 0.000000 1.200000 40.000000 120.000000 0 0 0
19 10 1 0.000000 0.000000 40.000000 160.000000 0 0 0
20 10 1 0.000000 1.200000 40.000000 160.000000 0 0 0
21 11 1 0.000000 0.000000 80.000000 0.000000 0 0 0
22 11 1 0.000000 1.200000 80.000000 0.000000 0 0 0
23 12 1 0.000000 0.000000 80.000000 40.000000 0 0 0
24 12 1 0.000000 1.200000 80.000000 40.000000 0 0 0
25 13 1 0.000000 0.000000 80.000000 80.000000 0 0 0
26 13 1 0.000000 1.200000 80.000000 80.000000 0 0 0
27 14 1 0.000000 0.000000 80.000000 120.000000 0 0 0
28 14 1 0.000000 1.200000 80.000000 120.000000 0 0 0
29 15 1 0.000000 0.000000 80.000000 160.000000 0 0 0
30 15 1 0.000000 1.200000 80.000000 160.000000 0 0 0
31 16 1 0.000000 0.000000 120.000000 0.000000 0 0 0
32 16 1 0.000000 1.200000 120.000000 0.000000 0 0 0
33 17 1 0.000000 0.000000 120.000000 40.000000 0 0 0
34 17 1 0.000000 1.200000 120.000000 40.000000 0 0 0
35 18 1 0.000000 0.000000 120.000000 80.000000 0 0 0
36 18 1 0.000000 1.200000 120.000000 80.000000 0 0 0
37 19 1 0.000000 0.000000 120.000000 120.000000 0 0 0
38 19 1 0.000000 1.200000 120.000000 120.000000 0 0 0
39 20 1 0.000000 0.000000 120.000000 160.000000 0 0 0
40 20 1 0.000000 1.200000 120.000000 160.000000 0 0 0
41 21 1 0.000000 0.000000 160.000000 0.000000 0 0 0
42 21 1 0.000000 1.200000 160.000000 0.000000 0 0 0
43 22 1 0.000000 0.000000 160.000000 40.000000 0 0 0
44 22 1 0.000000 1.200000 160.000000 40.000000 0 0 0
45 23 1 0.000000 0.000000 160.000000 80.000000 0 0 0
46 23 1 0.000000 1.200000 160.000000 80.000000 0 0 0
47 24 1 0.000000 0.000000 160.000000 120.000000 0 0 0
48 24 1 0.000000 1.200000 160.000000 120.000000 0 0 0
49 25 1 0.000000 0.000000 160.000000 160.000000 0 0 0
50 25 1 0.000000 1.200000 160.000000 160.000000 0 0 0
51 26 1 0.000000 40.000000 0.000000 0.000000 0 0 0
52 26 1 0.000000 41.200000 0.000000 0.000000 0 0 0
53 27 1 0.000000 40.000000 0.000000 40.000000 0 0 0
54 27 1 0.000000 41.200000 0.000000 40.000000 0 0 0
55 28 1 0.000000 40.000000 0.000000 80.000000 0 0 0
56 28 1 0.000000 41.200000 0.000000 80.000000 0 0 0
57 29 1 0.000000 40.000000 0.000000 120.000000 0 0 0
58 29 1 0.000000 41.200000 0.000000 120.000000 0 0 0
59 30 1 0.000000 40.000000 0.000000 160.000000 0 0 0
60 30 1 0.000000 41.200000 0.000000 160.000000 0 0 0
61 31 1 0.000000 40.000000 40.000000 0.000000 0 0 0
62 31 1 0.000000 41.200000 40.000000 0.000000 0 0 0
63 32 1 0.000000 40.000000 40.000000 40.000000 0 0 0
64 32 1 0.000000 41.200000 40.000000 40.000000 0 0 0
65 33 1 0.000000 40.000000 40.000000 80.000000 0 0 0
66 33 1 0.000000 41.200000 40.000000 80.000000 0 0 0
67 34 1 0.000000 40.000000 40.000000 120.000000 0 0 0
68 34 1 0.000000 41.200000 40.000000 120.000000 0 0 0
69 35 1 0.000000 40.000000 40.000000 160.000000 0 0 0
70 35 1 0.000000 41.200000 40.000000 160.000000 0 0 0
71 36 1 0.000000 40.000000 80.000000 0.000000 0 0 0
72 36 1 0.000000 41.200000 80.000000 0.000000 0 0 0
73 37 1 0.000000 40.000000 80.000000 40.000000 0 0 0
74 37 1 0.000000 41.200000 80.000000 40.000000 0 0 0
75 38 1 0.000000 40.000000 80.000000 80.000000 0 0 0
76 38 1 0.000000 41.200000 80.000000 80.000000 0 0 0
77 39 1 0.000000 40.000000 80.000000 120.000000 0 0 0
78 39 1 0.000000 41.200000 80.000000 120.000000 0 0 0
79 40 1 0.000000 40.000000 80.000000 160.000000 0 0 0
80 40 1 0.000000 41.200000 80.000000 160.000000 0 0 0
81 41 1 0.000000 40.000000 120.000000 0.000000 0 0 0
82 41 1 0.000000 41.200000 120.000000 0.000000 0 0 0
83 42 1 0.000000 40.000000 120.000000 40.000000 0 0 0
84 42 1 0.000000 41.200000 120.000000 40.000000 0 0 0
85 43 1 0.000000 40.000000 120.000000 80.000000 0 0 0
86 43 1 0.000000 41.200000 120.000000 80.000000 0 0 0
87 44 1 0.000000 40.000000 120.000000 120.000000 0 0 0
88 44 1 0.000000 41.200000 120.000000 120.000000 0 0 0
89 45 1 0.000000 40.000000 120.000000 160.000000 0 0 0
90 45 1 0.000000 41.200000 120.000000 160.000000 0 0 0
91 46 1 0.000000 40.000000 160.000000 0.000000 0 0 0
92 46 1 0.000000 41.200000 160.000000 0.000000 0 0 0
93 47 1 0.000000 40.000000 160.000000 40.000000 0 0 0
94 47 1 0.000000 41.200000 160.000000 40.000000 0 0 0
95 48 1 0.000000 40.000000 160.000000 80.000000 0 0 0
96 48 1 0.000000 41.200000 160.000000 80.000000 0 0 0
97 49 1 0.000000 40.000000 160.000000 120.000000 0 0 0
98 49 1 0.000000 41.200000 160.000000 120.000000 0 0 0
99 50 1 0.000000 40.000000 160.000000 160.000000 0 0 0
100 50 1 0.000000 41.200000 160.000000 160.000000 0 0 0
101 51 1 0.000000 80.000000 0.000000 0.000000 0 0 0
102 51 1 0.000000 81.200000 0.000000 0.000000 0 0 0
103 52 1 0.000000 80.000000 0.000000 40.000000 0 0 0
104 52 1 0.000000 81.200000 0.000000 40.000000 0 0 0
105 53 1 0.000000 80.000000 0.000000 80.000000 0 0 0
106 53 1 0.000000 81.200000 0.000000 80.000000 0 0 0
107 54 1 0.000000 80.000000 0.000000 120.000000 0 0 0
108 54 1 0.000000 81.200000 0.000000 120.000000 0 0 0
109 55 1 0.000000 80.000000 0.000000 160.000000 0 0 0
110 55 1 0.000000 81.200000 0.000000 160.000000 0 0 0
111 56 1 0.000000 80.000000 40.000000 0.000000 0 0 0
112 56 1 0.000000 81.200000 40.000000 0.000000 0 0 0
113 57 1 0.000000 80.000000 40.000000 40.000000 0 0 0
114 57 1 0.000000 81.200000 40.000000 40.000000 0 0 0
115 58 1 0.000000 80.000000 40.000000 80.000000 0 0 0
116 58 1 0.000000 81.200000 40.000000 80.000000 0 0 0
117 59 1 0.000000 80.000000 40.000000 120.000000 0 0 0
118 59 1 0.000000 81.200000 40.000000 120.000000 0 0 0
119 60 1 0.000000 80.000000 40.000000 160.000000 0 0 0
120 60 1 0.000000 81.200000 40.000000 160.000000 0 0 0
121 61 1 0.000000 80.000000 80.000000 0.000000 0 0 0
122 61 1 0.000000 81.200000 80.000000 0.000000 0 0 0
123 62 1 0.000000 80.000000 80.000000 40.000000 0 0 0
124 62 1 0.000000 81.200000 80.000000 40.000000 0 0 0
125 63 1 0.000000 80.000000 80.000000 80.000000 0 0 0
126 63 1 0.000000 81.200000 80.000000 80.000000 0 0 0
127 64 1 0.000000 80.000000 80.000000 120.000000 0 0 0
128 64 1 0.000000 81.200000 80.000000 120.000000 0 0 0
129 65 1 0.000000 80.000000 80.000000 160.000000 0 0 0
130 65 1 0.000000 81.200000 80.000000 160.000000 0 0 0
131 66 1 0.000000 80.000000 120.000000 0.000000 0 0 0
132 66 1 0.000000 81.200000 120.000000 0.000000 0 0 0
133 67 1 0.000000 80.000000 120.000000 40.000000 0 0 0
134 67 1 0.000000 81.200000 120.000000 40.000000 0 0 0
135 68 1 0.000000 80.000000 120.000000 80.000000 0 0 0
136 68 1 0.000000 81.200000 120.000000 80.000000 0 0 0
137 69 1 0.000000 80.000000 120.000000 120.000000 0 0 0
138 69 1 0.000000 81.200000 120.000000 120.000000 0 0 0
139 70 1 0.000000 80.000000 120.000000 160.000000 0 0 0
140 70 1 0.000000 81.200000 120.000000 160.000000 0 0 0
141 71 1 0.000000 80.000000 160.000000 0.000000 0 0 0
142 71 1 0.000000 81.200000 160.000000 0.000000 0 0 0
143 72 1 0.000000 80.000000 160.000000 40.000000 0 0 0
144 72 1 0.000000 81.200000 160.000000 40.000000 0 0 0
145 73 1 0.000000 80.000000 160.000000 80.000000 0 0 0
146 73 1 0.000000 81.200000 160.000000 80.000000 0 0 0
147 74 1 0.000000 80.000000 160.000000 120.000000 0 0 0
148 74 1 0.000000 81.200000 160.000000 120.000000 0 0 0
149 75 1 0.000000 80.000000 160.000000 160.000000 0 0 0
150 75 1 0.000000 81.200000 160.000000 160.000000 0 0 0
151 76 1 0.000000 120.000000 0.000000 0.000000 0 0 0
152 76 1 0.000000 121.200000 0.000000 0.000000 0 0 0
153 77 1 0.000000 120.000000 0.000000 40.000000 0 0 0
154 77 1 0.000000 121.200000 0.000000 40.000000 0 0 0
155 78 1 0.000000 120.000000 0.000000 80.000000 0 0 0
156 78 1 0.000000 121.200000 0.000000 80.000000 0 0 0
157 79 1 0.000000 120.000000 0.000000 120.000000 0 0 0
158 79 1 0.000000 121.200000 0.000000 120.000000 0 0 0
159 80 1 0.000000 120.000000 0.000000 160.000000 0 0 0
160 80 1 0.000000 121.200000 0.000000 160.000000 0 0 0
161 81 2 0.000000 140.812949 75.520588 10.168428 0 0 0
162 82 2 0.000000 96.041302 119.614325 124.060657 0 0 0
163 83 2 0.000000 52.779226 83.395911 102.613322 0 0 0
164 84 2 0.000000 22.636016 187.731774 118.369170 0 0 0
165 85 2 0.000000 149.307950 195.533144 131.321701 0 0 0
166 86 2 0.000000 150.390993 75.868369 139.522809 0 0 0
167 87 2 0.000000 3.094420 193.256149 140.221812 0 0 0
168 88 2 0.000000 107.764701 85.169245 136.361901 0 0 0
169 89 2 0.000000 115.025824 195.016948 81.500379 0 0 0
170 90 2 0.000000 52.045710 111.727870 123.743127 0 0 0
171 91 2 0.000000 151.044371 42.771017 151.565555 0 0 0
172 92 2 0.000000 142.178343 22.792113 62.612281 0 0 0
173 93 2 0.000000 121.515051 156.310405 105.924831 0 0 0
174 94 2 0.000000 24.369486 72.934274 120.835086 0 0 0
175 95 2 0.000000 76.400862 153.197079 67.372590 0 0 0
176 96 2 0.000000 100.699763 43.739036 148.721125 0 0 0
177 97 2 0.000000 194.302361 145.871223 49.220335 0 0 0
178 98 2 0.000000 46.978282 116.051348 66.420159 0 0 0
179 99 2 0.000000 106.423567 102.129612 102.295133 0 0 0
180 100 2 0.000000 155.025938 40.749901 18.599146 0 0 0
181 101 2 0.000000 108.300489 35.707088 146.049800 0 0 0
182 102 2 0.000000 174.337896 22.714011 9.278863 0 0 0
183 103 2 0.000000 148.350500 35.133057 172.551278 0 0 0
184 104 2 0.000000 126.084065 43.262386 171.433811 0 0 0
185 105 2 0.000000 9.356970 136.430795 109.573427 0 0 0
186 106 2 0.000000 54.050201 22.426619 193.763325 0 0 0
187 107 2 0.000000 19.013848 5.110661 51.547544 0 0 0
188 108 2 0.000000 102.418489 198.417551 89.579109 0 0 0
189 109 2 0.000000 13.341119 95.628041 74.248979 0 0 0
190 110 2 0.000000 161.889061 10.358599 143.572846 0 0 0
191 111 2 0.000000 115.024018 52.054132 2.465880 0 0 0
192 112 2 0.000000 3.588120 52.313461 49.596254 0 0 0
193 113 2 0.000000 193.038559 31.950249 189.708298 0 0 0
194 114 2 0.000000 13.335551 128.494559 6.966961 0 0 0
195 115 2 0.000000 60.325003 103.262258 26.738813 0 0 0
196 116 2 0.000000 87.691020 182.234757 102.295915 0 0 0
197 117 2 0.000000 181.169596 166.383289 54.758530 0 0 0
198 118 2 0.000000 20.200804 143.318865 126.344419 0 0 0
199 119 2 0.000000 105.523897 158.971120 142.979444 0 0 0
200 120 2 0.000000 190.192428 150.190320 10.279749 0 0 0

Bonds

1 1 1 2
2 1 3 4
3 1 5 6
4 1 7 8
5 1 9 10
6 1 11 12
7 1 13 14
8 1 15 16
9 1 17 18
10 1 19 20
11 1 21 22
12 1 23 24
13 1 25 26
14 1 27 28
15 1 29 30
16 1 31 32
17 1 33 34
18 1 35 36
19 1 37 38
20 1 39 40
21 1 41 42
22 1 43 44
23 1 45 46
24 1 47 48
25 1 49 50
26 1 51 52
27 1 53 54
28 1 55 56
29 1 57 58
30 1 59 60
31 1 61 62
32 1 63 64
33 1 65 66
34 1 67 68
35 1 69 70
36 1 71 72
37 1 73 74
38 1 75 76
39 1 77 78
40 1 79 80
41 1 81 82
42 1 83 84
43 1 85 86
44 1 87 88
45 1 89 90
46 1 91 92
47 1 93 94
48 1 95 96
49 1 97 98
50 1 99 100
51 1 101 102
52 1 103 104
53 1 105 106
54 1 107 108
55 1 109 110
56 1 111 112
57 1 113 114
58 1 115 116
59 1 117 118
60 1 119 120
61 1 121 122
62 1 123 124
63 1 125 126
64 1 127 128
65 1 129 130
66 1 131 132
67 1 133 134
68 1 135 136
69 1 137 138
70 1 139 140
71 1 141 142
72 1 143 144
73 1 145 146
74 1 147 148
75 1 149 150
76 1 151 152
77 1 153 154
78 1 155 156
79 1 157 158
80 1 159 160

