LAMMPS data file via write_data, version 23 Jun 2022, timestep = 200

200 atoms
2 atom types
194 bonds
2 bond types

96.87885201813904 103.12114798186096 xlo xhi
96.87885201813904 103.12114798186096 ylo yhi
96.87885201813904 103.12114798186096 zlo zhi

Masses

1 1
2 1.5

Pair Coeffs # lj/cut

1 1 1
2 1 1

Bond Coeffs # harmonic

1 100 1.2
2 100 1.2

Atoms # full

1 1 1 0 98.78205510652106 99.01000457966693 97.628086245451 -1 0 0
2 1 1 0 99.77395144342684 98.56381924406253 97.40620641875209 -1 0 0
33 17 1 0 97.0004852882621 98.27261901643305 97.98745531938235 -2 1 0
52 26 1 0 97.81485638420749 97.72092703393395 97.33650572335846 0 0 1
63 32 1 0 99.11812000411649 97.1001097910084 97.32921741728194 1 0 2
78 39 1 0 99.79486622300765 97.51215047084607 99.14756016666091 -2 1 0
83 42 1 0 98.79149645680495 98.07808654310747 97.95542829429424 0 1 0
84 42 1 0 97.91705191150594 98.83180473464915 98.16036860381966 0 1 0
86 43 1 0 99.28956941221267 99.76257868556112 97.03728517165082 0 2 0
94 47 1 0 99.22557459190044 99.32262058954622 99.13657325882933 0 0 0
108 54 1 0 99.51786325130736 99.58260926550871 98.0201894239693 0 -1 0
109 55 1 0 98.80301474733977 97.48629079529292 99.73904970275045 1 1 1
110 55 1 0 98.87405315439709 98.38330484110799 98.91687004435423 1 1 1
112 56 1 0 97.83434276590211 98.19877595626735 99.73114672449155 -1 0 0
127 64 1 0 97.94139666565985 97.9268602779435 98.72258251312245 1 1 1
131 66 1 0 98.84991626220604 97.32455395413979 98.66549723259114 2 -1 0
134 67 1 0 97.44089395963175 97.02079271520033 98.23914636735653 0 0 -1
181 101 2 0 103.018244643546 97.28190358478241 99.88877859113025 -2 1 -1
149 75 1 0 98.10317730837973 98.95401128765673 96.94236610238151 -1 1 2
151 76 1 0 98.0284583575372 99.22918223921482 99.14750429021304 2 0 0
157 79 1 0 97.86804265276199 97.05076251093193 99.38528155370729 2 -1 0
164 84 2 0 98.28450389394979 99.98613473248405 97.84595889061833 1 0 1
175 95 2 0 99.53799490595296 98.48480000531055 99.91799674543888 1 1 1
177 97 2 0 99.93687714958554 98.47514281659392 98.36615104033702 2 0 0
179 99 2 0 99.78584121975872 97.49351894577109 97.99431231586948 1 -1 1
185 105 2 0 96.9616447460739 99.7140345267615 99.0027552478513 0 2 0
200 120 2 0 97.14360515434282 99.41165425402966 97.91371698849846 -1 1 1
128 64 1 0 97.06516258908371 98.69175927398808 99.09485345657623 1 1 1
37 19 1 0 97.18398875393652 98.48151996075364 96.95329366184633 -1 1 0
3 2 1 0 101.53088049324424 99.27618670269095 97.08976949646765 -1 0 0
4 2 1 0 100.33246385930435 99.41804236931252 97.35706177785569 -1 0 0
6 3 1 0 101.92912565401377 97.20556811401993 99.51218258114777 -2 1 -1
168 88 2 0 101.60847724946595 98.24369671526338 98.85025964453742 -2 -2 0
34 17 1 0 102.52453530752973 98.86084758179823 97.35741722573754 -3 1 0
45 23 1 0 102.38499284685538 98.3267034074046 99.74135571803953 -1 0 0
46 23 1 0 102.65046401369788 97.71037888563448 98.71878623378133 -1 0 0
49 25 1 0 100.69007903126521 97.53097145481884 97.59277196048343 -2 1 2
50 25 1 0 100.97614820262675 98.67701623677935 98.10206481915007 -2 1 2
59 30 1 0 101.78113352401826 98.1899488901188 97.68753037092814 1 0 -1
60 30 1 0 100.78933590727166 98.45544665833795 97.09979477425279 1 0 -1
69 35 1 0 102.38205671291146 99.86008238865031 97.60636936492982 -1 0 0
70 35 1 0 101.95139174724441 99.11050929986199 98.21082028800684 -1 0 0
170 90 2 0 101.24905435413265 99.94906850917143 97.93527258288053 -1 -2 0
107 54 1 0 100.15682410399737 99.4539165973184 98.86556174161 0 -1 0
114 57 1 0 101.65916463483313 97.20688891933543 97.51480141729265 0 0 0
133 67 1 0 102.58786125726681 97.00078041235635 97.7882216648729 -1 0 -1
136 68 1 0 102.0561192515936 99.26441705476276 99.39505972088124 -1 0 -1
139 70 1 0 100.59644834559303 97.47539564815104 99.83003590326534 2 0 1
140 70 1 0 100.7682092032373 97.63099953334577 98.64053867818576 2 0 1
153 77 1 0 101.19991216117891 99.26344816890894 98.90850716658987 -1 -1 1
163 83 2 0 100.5440588518933 98.41398800565918 99.30850764412642 -1 0 0
73 37 1 0 100.41540454067624 99.40869075660439 99.86047917524769 -2 0 0
186 106 2 0 97.90021593209987 99.81661609287258 99.98240539252134 1 0 2
195 115 2 0 102.6073708999289 97.69040765935962 97.04036348178539 0 1 1
42 21 1 0 97.76065319447713 96.96402384286772 101.85793528428053 -1 1 0
38 19 1 0 97.49545243116177 97.73597427277399 102.43908986613025 -1 1 -1
41 21 1 0 98.01929442631292 98.08962949477358 101.36195848844035 -1 1 0
51 26 1 0 98.63378280276906 97.62086797007683 102.71121244216599 0 0 0
55 28 1 0 97.1120371101679 99.98299410800944 100.70339861620657 -1 0 -1
79 40 1 0 99.38948635651766 97.08826476733843 102.10485093612246 0 1 0
80 40 1 0 98.62899520732037 97.16383726742473 101.17607378039538 0 1 0
85 43 1 0 98.74626365167738 99.3625647415889 102.37928285276806 0 2 -1
91 46 1 0 99.91722324284586 99.8866342996805 102.22737990663516 -1 0 -2
93 47 1 0 98.64337030821314 99.09297779560963 100.06666233045145 0 0 0
95 48 1 0 97.97263649741656 98.64681771106456 102.20482372658768 0 2 1
96 48 1 0 96.8981753511336 98.35523473803181 101.84787519270817 0 2 1
100 50 1 0 98.6798284240513 99.94021926167251 100.64089727471197 1 -1 2
111 56 1 0 97.66201069661189 98.98190935510723 100.65677475188784 -1 0 0
121 61 1 0 99.06872955673862 98.07340649352149 101.7168593559965 1 1 -2
122 61 1 0 99.59516568172602 97.66925658760591 100.67777632501965 1 1 -2
150 75 1 0 97.36917563256246 99.48065425013343 102.53594189901104 -1 1 1
171 91 2 0 98.72203782064292 98.97353218745842 101.2517583582366 -1 -2 -1
180 100 2 0 97.9221011083468 97.4463161314959 100.45848932374956 -1 -1 -1
184 104 2 0 99.74762433517715 98.78081074122126 102.24591196985018 1 0 -1
137 69 1 0 101.73228427473491 96.8888111651055 101.3221414926382 -1 2 -2
187 107 2 0 96.91569485190885 98.0418424915213 100.66267184222582 0 -1 0
192 112 2 0 98.70631178006113 98.18833431986367 100.56790398898863 -1 0 -2
197 117 2 0 97.9025465846454 99.71036866532226 101.47804817296486 1 -1 1
199 119 2 0 99.62850944284797 99.49133257221204 100.73935789856085 0 2 0
166 86 2 0 99.98273055229532 97.73655761189261 103.01153290134559 2 0 -1
196 116 2 0 103.04924046717818 97.29279918677184 101.50308988069463 -1 0 0
5 3 1 0 102.28529703731382 97.25629237833213 100.5943183740875 -2 1 -1
15 8 1 0 102.19715618575407 99.02163852837963 101.70494237452262 -1 0 -1
16 8 1 0 101.26904242541579 98.44766281606276 101.2632780650275 -1 0 -1
21 11 1 0 101.14428368034073 97.48839912369169 101.9047907041413 -1 -1 -1
29 15 1 0 101.30008466231223 98.90777870767458 100.07150999940829 -2 0 0
30 15 1 0 102.16604364592452 98.38900476054181 100.73074245343112 -2 0 0
43 22 1 0 101.08245957010246 99.81106073552833 100.51241593801393 0 0 0
56 28 1 0 102.97391596644265 99.91465802808388 101.82579338209335 -2 0 -1
61 31 1 0 100.96440565336492 97.57189266929703 100.7682032157393 -1 0 -2
62 31 1 0 100.26333480728682 97.9296712131738 101.58287679113104 -1 0 -2
65 33 1 0 100.94860296996286 98.60682056749229 102.35565043546117 1 0 -1
66 33 1 0 102.02297584391586 98.32368678360423 102.72215107193446 1 0 -1
74 37 1 0 100.28260212600458 98.58641093495883 100.66699306332727 -2 0 0
76 38 1 0 100.59845905827429 99.21745613506305 101.48615968834135 -2 0 -1
148 74 1 0 102.02244474560983 97.1971169039719 102.42024722976515 0 0 -1
159 80 1 0 102.05874640378099 99.41000973875465 100.64841256496882 0 -1 3
162 82 2 0 103.03833845445872 99.12526393900114 101.16015793388442 0 0 3
172 92 2 0 102.57637534443617 99.40107617023358 102.70077115941483 -1 -1 -1
75 38 1 0 100.91705993998511 99.7674816828282 102.3736943662561 -2 0 -1
183 103 2 0 102.24261883084473 97.91484797234227 101.72242994343894 0 -2 -5
191 111 2 0 101.07171438263339 97.6160374925124 102.88747883852936 -1 0 1
135 68 1 0 102.94359616787474 99.21147781783117 100.0608036303399 -2 1 -1
7 4 1 0 99.73621616124854 101.42813406903477 99.73165170637277 -1 -1 -1
12 6 1 0 97.3682296342961 102.48102068290406 99.93821601730032 0 1 -1
13 7 1 0 97.57334716223082 101.99689525400126 98.38606538396614 0 1 0
19 10 1 0 97.21931599693589 102.95329589806803 97.04892915585785 1 0 1
27 14 1 0 99.03417364995946 102.13718129535926 97.64437774708092 -2 -1 0
35 18 1 0 98.43189734335476 102.57910480052315 98.73800596796772 1 -2 0
36 18 1 0 98.0274337473707 102.74834638710364 97.61521006787977 1 -2 0
40 20 1 0 98.19018638822041 101.06126944179744 97.50124209874252 0 0 0
47 24 1 0 98.25488515160818 102.04602098291707 99.63216851443356 0 0 0
48 24 1 0 98.79407555963358 101.13987680195322 99.8353921489437 0 0 0
71 36 1 0 97.33296892221104 101.4248940470095 96.95653537606003 1 0 -2
72 36 1 0 97.26703159534067 100.38848589609269 97.47916915861286 1 0 -2
77 39 1 0 99.63298048214223 102.81839527206489 98.28050500722983 -2 0 0
81 41 1 0 99.39184633752575 101.82083648533867 98.63438080672626 2 2 0
82 41 1 0 98.44506682407851 101.36196669517952 98.85069339777375 2 2 0
125 63 1 0 99.358504979339 100.77230103414632 97.42437847018462 0 -1 0
126 63 1 0 99.5527570546923 100.60099097845743 98.57064612119912 0 -1 0
132 66 1 0 99.18956654195814 102.66038408571315 99.38723766960491 1 -1 0
152 76 1 0 98.27252286078017 100.39243333807391 99.281428348224 2 0 0
174 94 2 0 97.45470635785381 101.2785093425712 99.20162784747387 1 2 -1
189 109 2 0 97.61400128365106 100.47663618982132 98.46346425258274 0 -1 1
8 4 1 0 99.48070698375543 100.22375792755062 99.74769569263518 -1 -1 -1
118 59 1 0 97.18127828334919 100.5243102625713 99.8016682955964 -1 2 -1
14 7 1 0 103.04156232884527 101.13769495961998 98.15441408247662 -1 1 0
194 114 2 0 100.04658628959048 101.57281959327187 97.79403047704706 0 0 -3
20 10 1 0 102.98293278844253 102.18852654800124 97.73534433414332 0 0 1
23 12 1 0 101.117666918735 100.98764067790324 97.27765525146555 -1 0 1
24 12 1 0 100.24667649606124 100.40340330907026 97.81566236269515 -1 0 1
31 16 1 0 102.05577845074313 100.85112052837547 97.7988462728571 -2 0 0
32 16 1 0 101.97107220036187 100.08430531510761 98.64540589473872 -2 0 0
89 45 1 0 102.37467317851905 100.9707845768849 99.07705071256402 0 0 1
90 45 1 0 102.96335268768478 101.97252880646772 99.29186177222829 0 0 1
98 49 1 0 102.20917737394646 101.8613349442729 98.50632707876147 0 0 2
113 57 1 0 101.84196027309177 102.21650787795924 97.68696791706608 0 -1 0
97 49 1 0 101.76238927960902 102.99300717006244 98.57218344465304 0 0 2
120 60 1 0 101.45100279673802 100.59852326120966 99.46751879348777 2 -1 1
124 62 1 0 102.45455454606851 101.63129493807003 97.01567106711632 -1 -1 1
145 73 1 0 100.92304728780121 102.19884819107934 98.34815782265626 0 -2 2
146 73 1 0 100.21588166486697 102.70927570114925 97.41796034959913 0 -2 2
154 77 1 0 100.68481467837411 100.2912207600801 98.79888867359057 -1 -1 1
158 79 1 0 96.91122568843242 102.93483983186515 98.99216161792302 3 -3 0
161 81 2 0 100.17223560757242 102.37413944818678 99.25681890287129 1 -1 1
178 98 2 0 101.29688609634685 101.10303631942669 98.48953419282819 -3 -1 1
188 108 2 0 100.36916975748493 101.43857363010278 98.85033948866185 -2 2 2
198 118 2 0 101.2421548085089 102.2895668114763 99.37578241861797 3 1 1
57 29 1 0 102.22667934073257 102.74529608225606 96.89260623065401 0 -1 0
115 58 1 0 102.06857292428361 101.64131304595892 99.74677207596181 1 -1 -1
143 72 1 0 100.47394056665739 100.41782940351813 99.93510490603818 -1 0 -2
119 60 1 0 102.40181631759948 100.26436937591951 99.90275552266903 2 -1 1
9 5 1 0 98.67538311562018 101.27623641606068 101.64696995996833 0 -1 0
10 5 1 0 98.47490169288679 101.54307947877456 102.80821077212002 0 -1 0
11 6 1 0 97.93540369726638 101.7344533321553 100.72831480868183 0 1 -1
28 14 1 0 99.72532153598945 101.68979598019838 103.00333431596202 -2 -1 -1
39 20 1 0 98.09560641851085 100.21370342374199 102.87336083162582 0 0 -1
64 32 1 0 98.37178124440852 102.75907070690619 102.8340738922535 1 -1 1
67 34 1 0 99.15297163673819 102.22078838377533 102.30008919604694 0 0 -1
68 34 1 0 99.52505046778728 102.61361729287515 101.31480084048081 0 0 -1
87 44 1 0 98.38364996065916 102.37357938385506 101.52501662881518 -1 -1 0
88 44 1 0 97.59306707159031 102.35199385098369 102.4584911282641 -1 -1 0
92 46 1 0 99.04366191186197 100.65471741400769 102.61158038625553 -1 0 -2
99 50 1 0 97.836885489454 100.69176741856477 100.92777808670581 1 -1 2
101 51 1 0 97.27917852748216 102.1983293492687 101.45079377127233 2 -1 0
103 52 1 0 99.06481902449289 100.85743135421654 100.78920594739809 0 -1 0
105 53 1 0 99.00219708876548 100.19238566123062 101.61803594364277 -1 0 -1
106 53 1 0 99.68640922772359 101.07760495105839 101.6979426171586 -1 0 -1
117 59 1 0 97.06541331330466 101.5668993502849 100.2693244099896 0 1 -1
141 71 1 0 98.27256871463794 102.764363920182 100.36003308322812 0 -1 -1
142 71 1 0 97.19268596174432 103.05291979099553 100.70080932647679 0 -1 -1
176 96 2 0 97.12956895944751 100.59198492127193 102.42720685336522 0 -1 -1
190 110 2 0 99.0041968375838 102.02469035432097 100.58662594520882 1 1 2
193 113 2 0 97.67672300834474 101.3175743049009 102.025087354685 1 0 1
53 27 1 0 99.71726321766143 102.96388663386556 100.2583117410599 0 0 -1
173 93 2 0 100.19937180375922 100.63462421314942 102.8986462008657 0 -1 -1
182 102 2 0 102.39153733127866 102.35974068781204 101.61706235753813 1 0 -1
102 51 1 0 96.89409661196363 101.1066594897831 101.38223959371278 1 0 0
104 52 1 0 100.20687149464622 101.10828093371758 100.68989382568638 0 -1 0
169 89 2 0 101.4213988251596 102.84467040979293 100.19563870968206 -2 2 1
17 9 1 0 100.91186025404016 101.36959948387292 102.5012413965808 -1 0 -1
18 9 1 0 100.17763946617434 102.10186907905 101.94506534488866 -1 0 -1
25 13 1 0 102.56662238147943 102.46691900207387 100.38770475014044 -2 -2 -1
26 13 1 0 102.42912322335144 101.32493004759434 100.65330230905566 -2 -2 -1
44 22 1 0 100.37018754014089 100.27588819258612 101.34733147045333 0 0 0
54 27 1 0 100.44451916952555 102.16719595170343 100.69861593560752 0 0 -1
167 87 2 0 101.83817561513537 101.92884779547005 102.49850435730812 0 -1 1
58 29 1 0 103.01676384502174 103.0617885565667 102.34187898470532 1 -2 -1
22 11 1 0 100.35312185915657 103.0721970165568 102.52637426713173 -1 -2 -1
165 85 2 0 100.49430045368103 103.10511458467104 101.39870179657224 0 2 0
116 58 1 0 101.58938358931454 101.99629459810959 100.79860742998041 1 -1 -1
123 62 1 0 102.44885830456808 100.48678614993545 103.02599637596488 -1 -1 0
129 65 1 0 103.01146291246543 101.70491053465257 102.30110908731807 0 -1 0
130 65 1 0 102.14766178853453 101.300979670074 101.65960647765252 0 -1 0
156 78 1 0 101.87968843561754 100.27824229835409 102.13134893615296 0 -1 0
138 69 1 0 101.16375523925012 102.11337072079075 101.70585317385812 0 0 -2
160 80 1 0 102.41327147407945 100.35752493218604 101.07522885819905 0 -1 3
144 72 1 0 101.11749426463618 101.31714851055052 100.1284043037129 -1 0 -2
147 74 1 0 101.18225830707601 102.7564029746742 103.01874551028136 0 -1 -1
155 78 1 0 101.43638113030215 100.696646540397 101.05937628925354 0 -1 0

Velocities

1 0.4917507310305067 0.29470276454951266 -0.7337158783623567
2 0.5076327627646761 -0.9241025643668629 0.17088852970659624
33 -0.17907755613483212 -0.507419342937215 -0.23114433022455289
52 -0.3388062349188529 0.09099525829261594 1.1582021366587074
63 0.09166841026108861 -0.6515849810584078 -0.1933973668956912
78 0.02786531186343106 -0.1968897251759104 0.3075529942171895
83 -0.45360973590500436 -1.441669983989625 -0.3865052244088943
84 -0.20785464747429266 -0.13593029630344858 1.4475660715415306
86 0.15217926588170472 0.7561830929326591 -0.6684424752754773
94 -0.03354045469354534 0.27261475030300836 -0.3197274239716736
108 -0.14445861637111243 0.47940559722052606 -0.9615848951204371
109 1.6453291858210308 -0.3784486446774204 0.3875371790835948
110 -0.4935877844269533 0.06586456514791791 -0.6662966518040272
112 0.8819057997295369 0.3661505496042046 0.1207476933793821
127 0.5882660245147401 -0.2166414983293783 -0.5119042038960714
131 -1.0734383575440365 0.3712249660845346 -0.6260028129140683
134 0.26858589067507654 0.01749401619822529 0.10574183093170764
181 1.1400554710321833 1.0932612740533574 -0.43038851548435286
149 -0.23463671287094343 -0.09397371420867172 1.186746498861851
151 -0.4108718247887144 -0.081599424232005 0.016170790867206592
157 -0.39399898100132974 0.1299798117332047 -0.05035936526320036
164 -0.2834843918162749 0.6255291008715491 -0.5404232915529573
175 -0.029751080237302253 -0.33322478652254595 -0.5329194757764327
177 0.33120884381357285 0.9848288788864342 -0.025234038999786438
179 -0.06479226347007147 0.5394106937578269 0.2502879271685601
185 -0.6082891343877441 -0.6342475442587365 0.20636408750794716
200 -0.5812962470251726 0.1903798222781493 0.2044923263571771
128 -0.7337688563286223 -0.7384133693807408 -0.5102645368218273
37 0.04543581549304779 0.7653340375621857 0.707856019546341
3 0.5102228978306879 -0.0930075696282896 -0.29859806600822236
4 -0.4842869641070315 -0.027519234843717537 -0.4930182002561295
6 -0.5616996299445857 0.17258316306521299 0.17074497568951155
168 -0.12320594182229168 -0.605659549382435 -0.1096794367102083
34 0.4176622623428678 0.25747213952730663 -0.13343824896527015
45 -0.17903727874680056 -0.7953454577223528 1.0166174949812001
46 0.23190225609156906 -0.1578070648029172 0.16710213293020132
49 0.3253287409912799 0.6123708709465145 0.07660295649759757
50 -0.25687254162313716 1.3330233436427712 0.4023624791354876
59 -1.1260731692675274 0.5969351735659393 -0.5829972346781995
60 -0.24646373004510702 0.8676054517317133 -0.1778803193194715
69 0.284675411873219 0.4529262176149858 0.778610912953037
70 1.3817153281207466 0.0756449511309195 0.20744103885950843
170 -0.37765497210280036 0.3228358483149119 0.2312203794201741
107 0.05259055807531379 1.39980263629889 -0.7361347364637106
114 -0.6008665737363189 -0.9781801250161459 0.03855456842659277
133 -0.0008962333786472597 -1.172507784494037 1.5601257318329633
136 0.45430976869813555 0.8811397823981981 -0.11750529148227336
139 0.1768734255986896 -0.7130932889245942 -0.5209655479974925
140 0.5852353200238524 0.21368615213557218 0.4540166076888937
153 -0.6622281887151714 -0.028955800278491844 0.3111457750314663
163 0.370009121995802 -1.218396615845284 0.24102639082149996
73 -0.035269747554589566 0.13430890424535993 -0.021274601239968487
186 -0.5515513754346758 0.49565957166351876 -0.31649515020989716
195 0.24978418059853055 0.0007376596644450171 0.0037674143113330316
42 1.1439674119911356 -1.5452184118090075 0.18132074933914213
38 0.7974478001798575 -0.8675266014188225 -0.6335020201680216
41 0.038834760237375816 -0.37844925365525023 0.005266644149051872
51 0.36824990222104576 0.5334052747878263 -0.8391797782188525
55 0.3747214268614058 -0.38242434749321097 0.17669023622986857
79 -0.16936106669200499 0.39287663386503247 0.524977130372648
80 0.4375657570820519 0.6199156404597721 0.24060980105469
85 0.10933081689979982 0.36581351831051057 0.410597726354228
91 0.04662167410521123 0.5280517197878196 0.3000417969955137
93 0.14666360369334208 -0.2822061008105576 -1.1014200374959664
95 0.014357801803613577 0.01097434832241192 0.3994049716733857
96 -0.09624390411255998 -0.21311926112453294 0.5528699699074523
100 0.5837797403690965 0.03671106172324223 -0.5873929339778494
111 1.393739466372288 -0.6480711048906264 -0.3670805996043295
121 0.27763933743392055 -0.42605375292540065 -0.16478261439966238
122 -0.2633201232391393 0.40134882636374486 0.20675641452923424
150 -0.4481826375702945 -0.013124117941077333 -0.4999578934559956
171 -0.032784574718172886 1.1730932341991995 -0.5101170293861818
180 -0.5476428098761572 0.42416416553368835 0.8382896141388847
184 -0.26385560325275353 -0.6829727213761555 -0.1799679046475909
137 -0.5477735563064335 0.371169210313213 0.2619123186546358
187 0.21834412424167507 -0.356984572313885 -0.14087855716248573
192 0.06319082556873626 -0.0911384746171591 0.2312223214832495
197 -0.25600953057085735 0.4488195093595596 0.37827194913190176
199 -0.32905612693055014 -0.18371050122358842 -0.3790503425513104
166 -0.3236673580496562 -0.668609767785877 -0.8679576174627652
196 -0.24469274021332282 0.12514926808782417 -0.680518980928482
5 0.7198183100464263 0.5772280615459285 0.931047028458739
15 0.3303003550612042 -0.20259614006996426 0.5141905502362394
16 -0.7247592128673372 0.5720252961609715 -0.32318993215067704
21 -0.2610915270467866 0.3666982037370598 -1.18673492459393
29 0.15992687825403054 -0.8347984585855598 0.17692175006596125
30 -0.7550139967807584 1.223024338472261 0.5646255530225414
43 0.06563784352406031 0.4873306388774795 0.04719140947262809
56 -0.3231694401317729 0.45407116623922494 -0.9757875675595548
61 -0.2078818039033254 -0.9113214484621813 -0.1691816780555159
62 -0.9151646925786517 -0.8469063102511235 0.6313443421355168
65 0.07765211367419114 0.26395345311885027 0.43054002710012174
66 0.20990825479093086 -0.035358377310913944 0.11729250876200314
74 -0.33053070666754475 -1.0432664733352608 -0.7667814448267996
76 -0.718423804312764 0.6667729305315944 0.32681688116513663
148 -0.23735949313144314 -0.15333633851959846 0.2970152425797089
159 0.7758756547586032 0.1861156133052408 0.1393141321269726
162 -0.2607833202895444 -0.09790668614701838 -0.6546248528301642
172 -0.4307783622364513 -0.46025127674589356 0.26291090976525416
75 0.39264834695344397 -1.3295277734116455 0.28383202731227763
183 0.34675887840062514 0.31911445209151434 -0.7579368725217595
191 0.4795354115992785 0.22454369395967308 0.25106900927658243
135 0.14276539655621032 0.45800904905478595 -0.03188095848332564
7 0.12290346620042682 -0.2935542715512823 0.18000786696545096
12 -0.1159357739781858 1.367125191896535 0.6147940853770997
13 0.696991434854718 0.25005947045372573 -0.4334821540269533
19 0.27145851295172135 1.8540254214341862 1.221533466370856
27 0.11965162541047765 0.2187684926464874 -0.08093544669178744
35 0.23632284149393523 -0.8833712657081446 0.15157924446883828
36 -0.8646370683660993 -0.012838592108261394 0.695841990230312
40 0.7367487691510127 0.23489988729531064 0.4309353265701658
47 0.3789935311462663 -0.6256179885492054 -2.5236295122594625
48 -0.6315134520204784 0.6096199766394288 0.44373459915355085
71 1.0995793757532073 0.8292754122822086 0.3846164980804594
72 -0.6957806266407985 -0.0720263846776528 0.14361787208352988
77 -0.5601709492629033 1.7253885797080024 -0.2897135156114132
81 0.1492058294690268 -1.0174937882770916 0.6576709611934025
82 0.6662222343328609 -0.48251260639387233 -0.5338335277342451
125 -0.32707660002115035 -0.40167868480977276 0.9405984691573308
126 -0.9294348369613838 -0.45942122907315813 0.45480264011751287
132 -0.4421201582125744 0.01874040237026153 -0.2603876052619234
152 0.6419091733427423 -0.011918378380174382 -0.5245539536188105
174 -0.05556961952425093 0.35104324253177793 0.006306925468434154
189 -0.32606118829642355 0.4609453513747357 -0.028730162057153487
8 -0.15073321879960852 0.8972985768545384 0.3403212671714029
118 0.22350491868863545 -0.6352691287799099 -0.23487598797200554
14 -0.5467834761991429 0.7687824518288272 0.07914703560551649
194 0.05499112088159459 -0.4810237618657299 -0.9310226669216695
20 0.09756938750619902 1.106751351535759 1.2477308021510083
23 0.15418070750843776 -1.275443433783029 0.12686293235885546
24 0.25221057646030665 -0.6027276258992421 -0.7677516140673868
31 0.3799287905143436 0.7602700931929711 0.5494763789954179
32 0.3865777491108513 0.19364831044400269 0.4812131566004234
89 -0.0412058277730971 -0.9944965483507601 -0.9729301925124474
90 0.8672689680543753 -0.5748960054116219 -0.014064524139166097
98 0.06640067046559377 -0.15991318421077644 0.11137484565549634
113 -1.6916204223927038 -0.6133398363674026 0.43988056025295147
97 0.7566533920689613 0.20783713736474657 -0.41602187159545206
120 0.16750503189193738 -1.305268045364123 0.6735921902094052
124 -0.92827520871111 -0.9961697945663117 1.2903084118022787
145 -1.054768223793435 -0.19199802692055493 0.24552835643487583
146 0.07070264455252628 0.4081928142770848 -0.0858671206850196
154 -0.6470802435294285 -0.9283340349990584 -0.24573713823604765
158 -0.18934386399557357 -0.7495686116667833 -0.7731249593538327
161 0.5340499257521699 0.8595851324136135 -0.2170621459743921
178 -0.39207767657043935 -0.17701802235398764 -0.5045522867985269
188 0.7499433045794285 -0.022754519816847302 0.3246321404561166
198 -1.0279657389627983 -0.3452753692686019 -0.1530969275792824
57 0.14718953014645178 -0.15461962653611427 0.991434607193911
115 -0.16926621492777388 0.4399567881902268 -0.34840368490318674
143 0.14020397868541548 0.23282980166188388 -0.46818201374125545
119 0.9032172635838527 -2.249843662791566 -0.2734200492928204
9 0.40098768254466116 0.3426327334424736 -0.1957273212598188
10 -0.19358662947290367 1.0856286930111125 -0.2632063739344021
11 1.071290935670289 -0.7031353436490844 -0.37015168669019766
28 -0.02531362959404808 0.9440144784844174 0.1880515396179403
39 0.06710775344969672 -0.31484139125304655 0.47130721788608765
64 0.6036140520039057 0.1062627766249039 -0.6937448298432931
67 -1.5358404915909833 0.15118129805289238 0.4455805587922804
68 -0.29447210891941844 -0.5177188556177511 -0.026096734860906114
87 0.8737200005426716 1.1320498676793824 0.09507719044851962
88 0.16940262195914815 0.3968829669562396 0.36514513178789487
92 0.35688506125664177 0.5578643871120843 0.8734498085300901
99 0.07811003020051638 0.26032049658970974 0.029074533935970915
101 -1.2965334214220132 -0.3080124127888404 -0.38846748327683933
103 0.7440526193021252 -0.18218639838776693 -0.186108869124711
105 -0.09103085643545487 -1.2181876527363567 0.8369253652407864
106 -0.40510373392088506 -0.7582367305622083 0.07893074198178442
117 0.7413224206504418 0.4949709161320816 -0.6020286843559423
141 -0.5073269246918662 -0.6205851263659574 -0.020089704779979612
142 0.5492299923037499 -1.058391057561567 0.12697704497537066
176 0.19448799957855806 0.6784846528756632 1.1071181033533601
190 -0.22311782073511996 -0.07910751695936946 -0.20603788290211747
193 1.2040823221066619 -0.2184538433993129 0.2128581368382895
53 0.08120662869847846 0.7556120181184182 -0.9237069883222916
173 -0.17484785355232188 0.2670160667348289 0.4844228134007875
182 -0.07681289261903283 0.05780147660567294 -0.3979661453054048
102 1.2553034098027223 -0.26600890203017613 -0.3824711302920691
104 0.9898249903830457 0.1737447103120628 1.4598586491986973
169 -0.35946525871885204 -0.5714454913559999 -0.2642787925144384
17 -0.3967573398939498 0.4038689068210092 0.09058837397729425
18 0.6362531448907135 -0.43329564259126385 -0.32688887503431086
25 -0.15093836699226174 -0.9528485901614918 -0.23733792908340523
26 -1.0202560412828794 0.036835399015173374 0.9918842040746338
44 -0.5714659800630515 -0.4466279723308933 0.14618830368763167
54 -0.11349321714460867 1.082186413946735 -0.37217448660728913
167 0.07654952223454393 -0.33315865080388274 -0.058789910740869825
58 0.889496804428862 0.5343264723870528 -0.3548321018272102
22 -0.26132701420428944 -1.2974384359383697 -0.094331796702999
165 -0.23669548785169525 -0.1291284764163717 -0.3225599431890654
116 0.838796384174741 0.14177833625098699 -0.593202461189076
123 0.5925409844977584 0.723883747789646 -0.6886030216788361
129 -1.4875757754592833 0.4072407027808675 -0.1512590834214344
130 0.33395034830844683 -0.04443708522917892 0.9486052281829255
156 -0.4903648999745775 0.06611092902190965 0.14129408197355817
138 -0.9180154360907663 0.3773641144339303 -0.9168954358966483
160 -0.004651288136570152 -0.7276020948114557 1.27071149326263
144 -0.5818700385405637 -0.09347019423759878 -1.0219280013475043
147 0.39737925882623865 -0.09726881688468994 0.06569872897998891
155 -0.6974967281337356 0.8299314745513989 0.5733749963010939

Bonds

1 1 1 2
2 1 33 34
3 1 63 64
4 1 83 84
5 1 109 110
6 1 127 128
7 1 131 132
8 1 149 150
9 1 151 152
10 1 157 158
11 2 164 1
12 2 164 40
13 2 164 72
14 2 164 84
15 2 175 94
16 2 175 109
17 2 175 122
18 2 177 108
19 2 177 110
20 2 177 140
21 2 179 83
22 2 179 131
23 2 185 151
24 2 185 118
25 2 200 33
26 1 37 38
27 1 3 4
28 2 168 6
29 2 168 45
30 2 168 59
31 2 168 70
32 1 45 46
33 1 49 50
34 1 59 60
35 1 69 70
36 2 170 4
37 2 170 23
38 2 170 31
39 2 170 50
40 1 107 108
41 1 133 134
42 1 139 140
43 1 153 154
44 2 163 29
45 2 163 73
46 2 163 78
47 2 163 107
48 1 73 74
49 2 186 55
50 2 186 99
51 1 41 42
52 1 51 52
53 1 55 56
54 1 79 80
55 1 85 86
56 1 91 92
57 1 93 94
58 1 95 96
59 1 111 112
60 1 121 122
61 2 171 85
62 2 171 93
63 2 171 95
64 2 171 100
65 2 180 41
66 2 180 112
67 2 180 157
68 2 184 62
69 2 184 65
70 2 184 76
71 2 184 91
72 1 137 138
73 2 187 96
74 2 187 111
75 2 192 80
76 2 192 121
77 2 197 105
78 2 199 44
79 2 199 74
80 2 199 8
81 2 166 2
82 2 166 49
83 2 166 63
84 1 5 6
85 1 15 16
86 1 21 22
87 1 29 30
88 1 43 44
89 1 61 62
90 1 65 66
91 1 159 160
92 2 162 30
93 2 162 56
94 2 162 135
95 2 162 159
96 2 172 3
97 2 172 15
98 2 172 66
99 2 172 123
100 1 75 76
101 2 183 16
102 2 183 21
103 2 191 22
104 2 191 148
105 1 135 136
106 1 7 8
107 1 13 14
108 1 19 20
109 1 27 28
110 1 35 36
111 1 47 48
112 1 71 72
113 1 77 78
114 1 81 82
115 1 125 126
116 2 174 13
117 2 174 47
118 2 174 117
119 2 174 152
120 2 189 14
121 2 189 82
122 2 194 27
123 2 194 145
124 1 23 24
125 1 31 32
126 1 89 90
127 1 113 114
128 1 97 98
129 1 145 146
130 2 161 7
131 2 161 53
132 2 161 77
133 2 161 81
134 2 178 32
135 2 178 89
136 2 178 98
137 2 178 120
138 2 188 126
139 2 188 154
140 2 198 115
141 2 198 144
142 1 57 58
143 1 115 116
144 1 143 144
145 1 119 120
146 1 9 10
147 1 11 12
148 1 39 40
149 1 67 68
150 1 87 88
151 1 99 100
152 1 101 102
153 1 103 104
154 1 105 106
155 1 117 118
156 1 141 142
157 2 176 39
158 2 176 71
159 2 176 150
160 2 176 102
161 2 190 11
162 2 190 48
163 2 190 87
164 2 190 103
165 2 193 88
166 2 193 101
167 2 193 9
168 1 53 54
169 2 173 24
170 2 173 125
171 2 173 28
172 2 173 75
173 2 182 25
174 2 182 116
175 2 182 130
176 2 182 58
177 2 169 5
178 2 169 61
179 2 169 137
180 2 169 139
181 1 17 18
182 1 25 26
183 2 167 17
184 2 167 57
185 2 167 129
186 2 167 147
187 2 165 18
188 2 165 68
189 2 165 138
190 2 165 54
191 1 123 124
192 1 129 130
193 1 147 148
194 1 155 156
