LAMMPS (23 Jun 2022)
OMP_NUM_THREADS environment is not set. Defaulting to 1 thread. (src/comm.cpp:98)
  using 1 OpenMP thread(s) per MPI task
Reading data file ...
  orthogonal box = (0 0 0) to (200 200 200)
  2 by 2 by 3 MPI processor grid
  reading atoms ...
  200 atoms
  scanning bonds ...
  1 = max bonds/atom
  reading bonds ...
  80 bonds
Finding 1-2 1-3 1-4 neighbors ...
  special bond factors lj:    0        0        0       
  special bond factors coul:  0        0        0       
     1 = max # of 1-2 neighbors
     0 = max # of 1-3 neighbors
     0 = max # of 1-4 neighbors
     1 = max # of special neighbors
  special bonds CPU = 0.001 seconds
  read_data CPU = 0.005 seconds
Generated 0 of 1 mixed pair_coeff terms from geometric mixing rule
Neighbor list info ...
  update every 1 steps, delay 0 steps, check yes
  max neighbors/atom: 2000, page size: 100000
  master list distance cutoff = 5.5
  ghost atom cutoff = 5.5
  binsize = 2.75, bins = 73 73 73
  1 neighbor lists, perpetual/occasional/extra = 1 0 0
  (1) pair lj/cut, perpetual
      attributes: half, newton on
      pair build: half/bin/newton
      stencil: half/bin/3d
      bin: standard
Setting up Verlet run ...
  Unit style    : lj
  Current step  : 0
  Time step     : 0.002
Per MPI rank memory allocation (min/avg/max) = 6.325 | 6.364 | 6.44 Mbytes
   Step          Temp         Density         PotEng        Enthalpy        Press           Pxx            Pyy            Pzz            Pxy            Pxz            Pyz             Lx             Ly             Lz             Xy             Yz             Xz          Density    
         0   1              2.75e-05       2.2913944e-28  2.4875         2.4875e-05     2.4540872e-05  2.7057051e-05  2.3027077e-05 -8.5634887e-07  1.0219777e-06  4.891355e-07   200            200            200            0              0              0              2.75e-05     
       100   2.5460692      0.00020837979  4.84198       -3.056329      -0.0022160845  -0.0064438455  -9.1411273e-05 -0.00011299676 -0.00011418486  0.00013728392 -2.0090717e-05  101.8253       101.8253       101.8253       0              0              0              0.00020837979
       200   4.2640578      0.00048094567  1.6513437      17.204854      0.0040178218   0.0058415713   0.0033632822   0.0028486119  -4.2789028e-05 -8.5741084e-05  7.8929957e-05  77.050516      77.050516      77.050516      0              0              0              0.00048094567
       300   3.4115415      0.00083253566  0.10197818     9.1505838      0.002994767    0.0036031276   0.0028637717   0.0025174015  -3.7100749e-05 -8.201748e-05   4.9293533e-05  64.171168      64.171168      64.171168      0              0              0              0.00083253566
       400   2.6650275      0.0012518324   1.5332665      1.0293568     -0.0051000372  -0.0046920882  -0.0055959128  -0.0050121108  -0.0003085931  -0.00019488978  9.2227373e-07  56.013429      56.013429      56.013429      0              0              0              0.0012518324 
       500   1.844358       0.0017357496   1.6264734      11.395685      0.011071727    0.0099728151   0.012844267    0.010398099   -0.0005862194   0.0006313967   0.00017895614  50.231776      50.231776      50.231776      0              0              0              0.0017357496 
       600   1.901852       0.0022799317   0.3394364      2.3519903     -0.001711939   -0.0018805806  -0.0022503821  -0.0010048541   0.00026870187 -0.00027736702 -2.114114e-05   45.866994      45.866994      45.866994      0              0              0              0.0022799317 
       700   1.9975619      0.002874355    0.25957838     2.60303       -0.0016668893  -0.00098650153 -0.0018084324  -0.0022057341  -0.00038357527 -0.0006090507   0.00016388491  42.45812       42.45812       42.45812       0              0              0              0.002874355  
       800   1.017974       0.0035282963   0.95224146     7.753001       0.01694042     0.01561895     0.019902095    0.015300215   -0.0016149135   0.0013225068   0.00011163101  39.653897      39.653897      39.653897      0              0              0              0.0035282963 
       900   0.97365619     0.0042285613   0.65666437    -1.2913616     -0.013074742   -0.012199493   -0.01634353    -0.010681202    0.0015609288  -0.0012509463  -0.00029105667  37.331607      37.331607      37.331607      0              0              0              0.0042285613 
      1000   1.4205111      0.0049740385   0.050137034    3.9623344      0.008103543    0.0070444316   0.010452536    0.0068136615  -0.00099244452  4.1728786e-05  0.0003990247   35.364798      35.364798      35.364798      0              0              0              0.0049740385 
      1100   0.92072168     0.0057763944   0.34185325     5.3126247      0.01888668     0.020335936    0.020979347    0.015344756   -0.0017228751   0.0010020143   7.8876843e-05  33.64511       33.64511       33.64511       0              0              0              0.0057763944 
      1200   0.69387116     0.0066110377   0.67376635    -2.1719337     -0.023326763   -0.026780909   -0.026110118   -0.017089261    0.0019993324  -0.0016751948  -0.00018606744  32.165059      32.165059      32.165059      0              0              0              0.0066110377 
      1300   1.0058712      0.0074954139   0.24293869     4.9120524      0.021585776    0.022844162    0.024880916    0.01703225    -0.0018218818   0.00042869501  0.00044083934  30.846722      30.846722      30.846722      0              0              0              0.0074954139 
      1400   1.0267433      0.008429022   -0.0018067822   3.2799976      0.013405134    0.017722264    0.012646581    0.0098465556  -0.0015183646   0.00066467135 -0.00010212648  29.663006      29.663006      29.663006      0              0              0              0.008429022  
      1500   0.89274261     0.0093834099   0.39055844    -0.89133979    -0.022301095   -0.03394919    -0.020506234   -0.01244786     0.002111941   -0.00096529524  0.0013830642   28.621167      28.621167      28.621167      0              0              0              0.0093834099 
      1600   0.86227601     0.010397601    0.44786346     5.4369066      0.034993564    0.043571461    0.035524276    0.025884956   -0.0024188549  -0.00060237875 -8.5954787e-05  27.658577      27.658577      27.658577      0              0              0              0.010397601  
      1700   1.0885828      0.011446413    0.049625799    1.4752517     -0.0020716344  -0.0032842595  -0.0030292409   9.8597107e-05  0.00016626841  0.00060762537  0.00085483097  26.78661       26.78661       26.78661       0              0              0              0.011446413  
      1800   1.1784921      0.012516098    0.10597562     1.0928439     -0.0087843791  -0.02136743    -7.0585137e-05 -0.0049151223   0.0020197485   0.00036620262  0.00085962382  26.000672      26.000672      26.000672      0              0              0              0.012516098  
      1900   0.93233785     0.013650364    0.41060598     5.6088451      0.047239253    0.065285674    0.041729766    0.03470232    -0.0056764047  -0.0023001175   0.0016023349   25.259582      25.259582      25.259582      0              0              0              0.013650364  
      2000   1.0061918      0.01479992     0.24539201    -0.070018241   -0.024448815   -0.039868486   -0.021302188   -0.012175772    0.0041480241   0.0056626726  -0.0018084748   24.587881      24.587881      24.587881      0              0              0              0.01479992   
      2100   1.2300825      0.01598379    -0.040396496    2.7699357      0.014159228    0.012688403    0.019050837    0.010738443   -0.00072419861 -0.0001249457   0.0016516748   23.965195      23.965195      23.965195      0              0              0              0.01598379   
      2200   0.98404339     0.017228615    0.159739       4.7005669      0.048117064    0.067696675    0.043051178    0.033603339   -0.0020288894  -0.0049669319   0.0043544661   23.373519      23.373519      23.373519      0              0              0              0.017228615  
      2300   0.83367365     0.01847358     0.32736078    -0.85896712    -0.040819656   -0.066739752   -0.032572362   -0.023146855   -7.7778862e-05  0.0022309303  -0.0035954204   22.836202      22.836202      22.836202      0              0              0              0.01847358   
      2400   1.0272435      0.019771884    0.035477684    3.5089149      0.034875382    0.040714197    0.035867571    0.028044377   -0.0023354806  -0.0070882852   0.0031733156   22.325004      22.325004      22.325004      0              0              0              0.019771884  
      2500   0.98800703     0.02112024    -0.022472845    3.3934654      0.037274108    0.047826705    0.032956785    0.031038836   -0.001215067   -0.00066570877  0.0013323421   21.839429      21.839429      21.839429      0              0              0              0.02112024   
      2600   0.86897646     0.022455553    0.21737584    -0.60302959    -0.043223935   -0.059680816   -0.033744929   -0.036246059   -0.00013297786  0.0070047615   0.0061439695   21.397661      21.397661      21.397661      0              0              0              0.022455553  
      2700   0.94153576     0.023863894    0.14543668     4.339278       0.060497124    0.06891302     0.061346901    0.051231452   -0.0027405617  -0.011386428    7.246697e-05   20.968166      20.968166      20.968166      0              0              0              0.023863894  
      2800   1.0627039      0.025294834   -0.050144856    2.0441387      0.011686168    0.014208053    0.0086877897   0.01216266    -0.0020662203   0.0022350612   0.0039744119   20.565074      20.565074      20.565074      0              0              0              0.025294834  
      2900   1.0502768      0.026726728    0.074378646    0.5342895     -0.026912047   -0.04018445    -0.017274657   -0.023277034    0.0037070419   0.0023234655   0.0012851183   20.191053      20.191053      20.191053      0              0              0              0.026726728  
      3000   0.98554323     0.02823899     0.17706535     4.7374476      0.079312001    0.095941837    0.077435162    0.064559005    0.00073682348 -0.011857243    0.0023205439   19.823995      19.823995      19.823995      0              0              0              0.02823899   
      3100   1.0756654      0.029742221    0.013788509    0.86951546    -0.020270776   -0.027637162   -0.012969003   -0.020206163   -0.0077522062   0.012385232    0.0048379422   19.484223      19.484223      19.484223      0              0              0              0.029742221  
      3200   1.1198445      0.031269743   -0.036612796    1.8470345      0.006034473   -0.0013533341   0.011646719    0.0078100338  -0.00235245    -0.0088233018  -0.0030517038   19.161645      19.161645      19.161645      0              0              0              0.031269743  
      3300   0.99343716     0.032876       0.043786611    4.1442138      0.078236578    0.092157494    0.074070017    0.068482223    0.0029146597  -0.010366191    0.0016048238   18.844353      18.844353      18.844353      0              0              0              0.032876     
      3400   0.93294613     0.034455752    0.060334484    0.34303119    -0.034760385   -0.058037396   -0.021578135   -0.024665624   -0.00041500422 -0.0023368      0.0039920374   18.55184       18.55184       18.55184       0              0              0              0.034455752  
      3500   1.0276087      0.036087026   -0.11649164     2.4076018      0.032491035    0.03170709     0.037905424    0.02786059    -0.0083756252  -0.0037552917  -0.0029103805   18.26798       18.26798       18.26798       0              0              0              0.036087026  
      3600   0.95302373     0.037776306   -0.093806234    3.3926997      0.070886139    0.074733327    0.078853217    0.059071873   -0.0044235964  -0.0080628577   0.0032584385   17.991515      17.991515      17.991515      0              0              0              0.037776306  
      3700   0.89220936     0.039429158   -0.0093215531  -0.048198744   -0.049125134   -0.060602983   -0.066461195   -0.020311224    0.0091622105  -0.0011965131  -0.00037743344  17.736519      17.736519      17.736519      0              0              0              0.039429158  
      3800   0.95277349     0.041165348   -0.092414822    3.167395       0.068775895    0.070471652    0.084628442    0.051227592   -0.011461234   -0.0029074949   0.0025092857   17.483577      17.483577      17.483577      0              0              0              0.041165348  
      3900   1.0044072      0.042927022   -0.18506499     2.2105913      0.034988587    0.029492726    0.045739096    0.02973394    -0.00068106907 -0.0056620116   0.0060529559   17.24106       17.24106       17.24106       0              0              0              0.042927022  
      4000   0.96023362     0.044679309   -0.066786309    0.27925586    -0.044155607   -0.030974418   -0.063582751   -0.037909652   -0.0054294907   0.0057416512   0.0023783819   17.012654      17.012654      17.012654      0              0              0              0.044679309  
      4100   1.007969       0.046512253   -0.10170564     3.3140554      0.080819998    0.064232333    0.11523211     0.062995548   -0.0014566802  -0.001796755    0.0021515202   16.786176      16.786176      16.786176      0              0              0              0.046512253  
      4200   1.118201       0.048340651   -0.2664078      1.7198957      0.013947968    0.018570719    0.021136789    0.0021363961   0.0087780964  -0.0046688716   0.0020414817   16.571814      16.571814      16.571814      0              0              0              0.048340651  
      4300   1.0852896      0.050167201   -0.21309431     1.1528829     -0.011575741   -0.0070925626  -0.019200758   -0.0084339017  -0.030353845    0.0052443209   0.01446739     16.368201      16.368201      16.368201      0              0              0              0.050167201  
      4400   1.0581056      0.052054441   -0.23438328     3.2148005      0.088490709    0.078742817    0.098669323    0.088059987    0.0012942643  -0.0024082639   0.0010049615   16.16795       16.16795       16.16795       0              0              0              0.052054441  
      4500   0.98209815     0.053935856   -0.21758234     1.2559447      0.00037978453 -0.003126142    0.014292079   -0.010026584    0.010830279   -0.010949896    0.0028311804   15.977728      15.977728      15.977728      0              0              0              0.053935856  
      4600   0.95880908     0.055855131   -0.24521046     1.0849532     -0.0051213493  -0.00018887068  0.00092034405 -0.016095521   -0.015523044   -0.010737942    0.017394148    15.792584      15.792584      15.792584      0              0              0              0.055855131  
      4700   0.92823451     0.057846616   -0.25608748     2.560356       0.075256       0.084210865    0.084511837    0.057045299    0.016268599    0.0012185573  -0.0030044252   15.609233      15.609233      15.609233      0              0              0              0.057846616  
      4800   0.88568319     0.059829      -0.21115863     0.66264782    -0.024370838   -0.037275508   -0.02504781    -0.010789196    0.0061004896   0.0083722015   0.0058039478   15.434894      15.434894      15.434894      0              0              0              0.059829     
      4900   0.95430971     0.06184256    -0.27190607     1.4687615      0.017785938    0.011737311    0.048246101   -0.006625597   -0.021874338   -0.013384488   -0.0036346317   15.265525      15.265525      15.265525      0              0              0              0.06184256   
      5000   1.0268531      0.063901413   -0.3417386      2.6478891      0.084643202    0.076157265    0.098805992    0.078966348    0.015865052   -0.01465341    -0.016325343    15.099784      15.099784      15.099784      0              0              0              0.063901413  
      5100   1.0062491      0.065917797   -0.25988403     0.88938315    -0.021127231   -0.026050025   -0.02900881    -0.0083228566  -0.016439036    0.0020922626   0.011807911    14.944223      14.944223      14.944223      0              0              0              0.065917797  
      5200   1.0574653      0.068010918   -0.30879593     1.9678425      0.043178988    0.024373253    0.088915438    0.016248272    0.019268814   -0.031133349    0.005054701    14.789313      14.789313      14.789313      0              0              0              0.068010918  
      5300   1.090557       0.070130181   -0.37105248     2.227343       0.061889194    0.057874876    0.063191921    0.064600785   -0.0023933061  -0.00047000573  0.0067254316   14.638814      14.638814      14.638814      0              0              0              0.070130181  
      5400   1.0509781      0.072227037   -0.34397094     1.2038006     -0.0013666224   0.0069638752  -0.011205801    0.00014205834 -0.020827977    0.0061820335   0.036873024    14.495759      14.495759      14.495759      0              0              0              0.072227037  
      5500   0.9957355      0.074390913   -0.32966324     1.9990305      0.056980636    0.055857602    0.070322234    0.044762071    0.011964895   -0.0026134075  -0.025334355    14.353823      14.353823      14.353823      0              0              0              0.074390913  
      5600   0.99854638     0.076581964   -0.41937929     1.5112003      0.030650131    0.016751788    0.040396273    0.034802333   -0.018392783   -0.0014073662   0.0056255978   14.215607      14.215607      14.215607      0              0              0              0.076581964  
      5700   0.9502729      0.078771295   -0.40773244     0.75920422    -0.017998929    0.0065388054  -0.022832481   -0.037703113    0.0023465694  -0.011982386    0.017184771    14.082667      14.082667      14.082667      0              0              0              0.078771295  
      5800   0.94231249     0.081023845   -0.43295642     1.762845       0.05814566     0.046887896    0.059375745    0.068173339   -0.009259428    0.001990057   -0.0073682811   13.950934      13.950934      13.950934      0              0              0              0.081023845  
      5900   0.929688       0.083277147   -0.42995135     1.1148307      0.011902781    0.0057073859  -0.00047330607  0.030474262    0.01337651    -0.02163252    -0.0062448562   13.823954      13.823954      13.823954      0              0              0              0.083277147  
      6000   0.97538423     0.085545556   -0.48014538     0.97060433    -0.00038971829  0.0053268635   0.022288778   -0.028784796    0.022542583    0.042780523   -0.0035211883   13.700668      13.700668      13.700668      0              0              0              0.085545556  
      6100   1.0485947      0.087874912   -0.56985985     2.1541981      0.092590629    0.077748242    0.10822851     0.091795139    0.0098644701  -0.018413803    0.017531165    13.578525      13.578525      13.578525      0              0              0              0.087874912  
      6200   1.0720878      0.090152762   -0.59403261     1.5534594      0.044863369    0.06466802     0.036843839    0.033078248   -0.022276434   -0.030893422    0.00051357974  13.463187      13.463187      13.463187      0              0              0              0.090152762  
      6300   1.0423367      0.092449167   -0.56846021     0.96267419    -0.0020635574  -0.010177335   -0.030376023    0.034362685    0.028904746   -0.0085245955   0.027606692    13.350778      13.350778      13.350778      0              0              0              0.092449167  
      6400   1.0503118      0.094836068   -0.6330551      1.8091753      0.075406745    0.052615926    0.097763097    0.075841212    0.014012872   -0.0078722086   0.043284393    13.237817      13.237817      13.237817      0              0              0              0.094836068  
      6500   0.98443981     0.097216412   -0.59905358     0.82947813    -0.0036009574   0.0014982759   0.0049939672  -0.017295115   -0.038276923    0.0026950784  -0.033878632    13.128881      13.128881      13.128881      0              0              0              0.097216412  
      6600   0.96889448     0.099630374   -0.62238932     1.1124146      0.026151065   -0.0055015649   0.043487405    0.040467355    0.0079549452  -0.010796768    0.0060803049   13.021978      13.021978      13.021978      0              0              0              0.099630374  
      6700   0.98558511     0.10210116    -0.68821397     1.2365746      0.042121632    0.025226469    0.055314967    0.045823459    0.025893369   -0.016393593    0.010501412    12.916078      12.916078      12.916078      0              0              0              0.10210116   
      6800   0.96066563     0.1045761     -0.67117792     1.2576098      0.047058696    0.069764323    0.051671128    0.019740638   -0.0024701214   0.0031806249  -0.013957199    12.813372      12.813372      12.813372      0              0              0              0.1045761    
      6900   0.97937436     0.10707395    -0.70676303     0.68306884    -0.006997221   -0.013068278   -0.038328607    0.030405222    0.028745679   -0.012979035   -0.00078691258  12.712948      12.712948      12.712948      0              0              0              0.10707395   
      7000   0.99001495     0.10959221    -0.71253543     1.6454125      0.087708699    0.075556571    0.12032204     0.067247482   -0.019918852    0.001555672    0.0088759759   12.614818      12.614818      12.614818      0              0              0              0.10959221   
      7100   1.0188581      0.11206264    -0.74843349     1.4001698      0.063973259    0.097184251    0.083388553    0.011346971   -0.004905617    0.016789198   -0.027330233    12.521431      12.521431      12.521431      0              0              0              0.11206264   
      7200   0.99694569     0.11457705    -0.72435393     1.3426915      0.060320023    0.054125998    0.076346632    0.050487439    0.020561868   -0.023558575   -0.0095974937   12.429157      12.429157      12.429157      0              0              0              0.11457705   
      7300   0.99172339     0.11712325    -0.73438676     0.73310193    -0.001347819    0.023796343   -0.011452447   -0.016387352    0.011918573    0.012507676   -0.024474369    12.338429      12.338429      12.338429      0              0              0              0.11712325   
      7400   0.96746264     0.11975075    -0.71481836     0.88633419     0.017115056    0.034373212    0.0069001979   0.010071759   -0.03488508    -0.037466948    0.0023249424   12.24752       12.24752       12.24752       0              0              0              0.11975075   
      7500   0.99182787     0.12243467    -0.7600914      0.81397666     0.010436438   -0.013141984    0.049492525   -0.0050412263  -0.01542309     0.036259204   -0.0010906714   12.157364      12.157364      12.157364      0              0              0              0.12243467   
      7600   1.0085863      0.12513992    -0.79082623     1.1074903      0.044709254   -0.0093651308   0.067947539    0.075545355   -0.025959512   -0.035499715   -0.02960108     12.06912       12.06912       12.06912       0              0              0              0.12513992   
      7700   1.0420602      0.12776204    -0.84928712     0.86270726     0.018202548   -0.0020746518   0.028984966    0.027697331   -0.014629238   -0.026666299    0.024779902    11.985982      11.985982      11.985982      0              0              0              0.12776204   
      7800   1.0503758      0.13040681    -0.88565023     1.1579607      0.056421695    0.068116511    0.086124549    0.015024026    0.007335845    0.04051477    -0.038149542    11.904399      11.904399      11.904399      0              0              0              0.13040681   
      7900   1.0167955      0.13307203    -0.87397279     0.87651881     0.028177923    0.00092974133  0.060155474    0.023448554    0.0028821239   0.0040221704  -0.015823901    11.824387      11.824387      11.824387      0              0              0              0.13307203   
      8000   0.93105882     0.13580943    -0.78448749     0.56857763    -0.004511362    0.039731773   -0.025289258   -0.027976601    0.00017155683 -0.054414051    0.017017257    11.744402      11.744402      11.744402      0              0              0              0.13580943   
      8100   0.97783713     0.1386424     -0.87982512     0.68174088     0.012874092    0.011252934    0.00015353356  0.027215808   -0.046674676   -0.014763444   -0.024698124    11.663858      11.663858      11.663858      0              0              0              0.1386424    
      8200   1.010735       0.14149149    -0.94007602     1.1886586      0.079777098    0.13417535     0.036791475    0.068364463    0.071473914   -0.046514143    0.070498912    11.585038      11.585038      11.585038      0              0              0              0.14149149   
      8300   1.0302124      0.14423355    -0.97560776     0.34635564    -0.028273522   -0.047910237   -0.014098741   -0.022811589    0.020725467    0.041031704   -0.05515539     11.511152      11.511152      11.511152      0              0              0              0.14423355   
      8400   0.96785052     0.147096      -0.89838741     1.1488024      0.08059162     0.039589937    0.045854179    0.15633074    -0.06917611     0.04556435     0.053684917    11.435994      11.435994      11.435994      0              0              0              0.147096     
      8500   0.99313636     0.14984787    -0.94197862     1.1813415      0.087329167    0.065302861    0.14729888     0.049385759    0.021099835    0.039002856   -0.036119517    11.365556      11.365556      11.365556      0              0              0              0.14984787   
      8600   1.0004063      0.15266576    -0.96531787     0.50134229    -0.0036704042  -0.014402965    0.014817304   -0.011425551    0.050855003    0.015774505    0.021926839    11.295194      11.295194      11.295194      0              0              0              0.15266576   
      8700   1.0193674      0.15554805    -0.99825419     0.34290188    -0.025488637    0.0012084493  -0.01327546    -0.064398899   -0.066842241   -0.044500484   -0.012133785    11.224992      11.224992      11.224992      0              0              0              0.15554805   
      8800   1.0117894      0.15848446    -0.99826852     1.2344953      0.10411971     0.10954666     0.039574099    0.16323836    -0.032780568    0.0011990169  -0.010361249    11.155234      11.155234      11.155234      0              0              0              0.15848446   
      8900   1.0191594      0.16137105    -1.0267277      0.6881205      0.028423725    0.046072119    0.059477966   -0.02027891     0.028886472    0.039799159    0.046726476    11.088318      11.088318      11.088318      0              0              0              0.16137105   
      9000   0.96113337     0.16424185    -0.95674314     0.45687568    -0.0031165231  -0.048281644    0.042273818   -0.0033417429  -0.057358968   -0.043261208   -0.021684431    11.023333      11.023333      11.023333      0              0              0              0.16424185   
      9100   0.97726045     0.16725684    -1.0109374      0.41913757    -0.0043313835  -0.010183222    0.0024788227  -0.0052897513  -0.018026284    0.0022266193  -0.0022585252   10.956696      10.956696      10.956696      0              0              0              0.16725684   
      9200   1.0373141      0.1703321     -1.123837       0.65784813     0.036155897    0.059579859   -0.0061739647   0.055061798   -0.029966911    0.044760722    0.0056547994   10.890356      10.890356      10.890356      0              0              0              0.1703321    
      9300   1.0152566      0.17331659    -1.1179201      0.79485582     0.062631183    0.038234625    0.098586894    0.05107203     0.0045534731  -0.0078893175   0.039184314    10.827483      10.827483      10.827483      0              0              0              0.17331659   
      9400   1.016602       0.17635647    -1.1733308      0.13188458    -0.033998833   -0.0012719446  -0.08641551    -0.014309045    0.026529776    0.00097025134 -0.042544971    10.764911      10.764911      10.764911      0              0              0              0.17635647   
      9500   1.0179625      0.17952121    -1.2306141      0.25399599    -0.0056629079   0.00099453267 -0.030325123    0.012341867    0.0034274844   0.00072057626 -0.027519938    10.701278      10.701278      10.701278      0              0              0              0.17952121   
      9600   0.99150182     0.18270685    -1.2430192      0.44157677     0.034013295    0.079752175    0.029630706   -0.0073429963  -0.004279834    0.0032744888  -0.002808706    10.638718      10.638718      10.638718      0              0              0              0.18270685   
      9700   0.99602173     0.18576936    -1.2862807      0.30964252     0.018468984    0.079517632    0.047841787   -0.071952469    0.025855902    0.14510228    -0.021448314    10.579932      10.579932      10.579932      0              0              0              0.18576936   
      9800   1.0239985      0.1888749     -1.368264       0.24927225     0.015319215   -0.014439639    0.0060602676   0.054337018    0.046990429   -0.014460612    0.029402273    10.521625      10.521625      10.521625      0              0              0              0.1888749    
      9900   1.0198967      0.19207454    -1.4094662     -0.05959151    -0.030089553   -0.021069108   -0.01233891    -0.056860641   -0.068147949   -0.061288724   -0.0065012144   10.462873      10.462873      10.462873      0              0              0              0.19207454   
     10000   1.0240008      0.19532003    -1.4614462      0.023472994   -0.0077066233   0.042715064   -0.023458288   -0.042376646    0.054563484    0.11496809    -0.040825942    10.404598      10.404598      10.404598      0              0              0              0.19532003   
     10100   1.0126877      0.19850143    -1.4822841     -0.07699256    -0.019154468   -0.02137103     0.017079541   -0.053171915    0.0075740265  -0.0041038657   0.0013482945   10.348713      10.348713      10.348713      0              0              0              0.19850143   
     10200   1.0035083      0.2017066     -1.5120142      0.083244554    0.01788268     0.035622346    0.036981004   -0.018955311    0.092728819   -0.080534634    0.026173853    10.293606      10.293606      10.293606      0              0              0              0.2017066    
     10300   0.9790056      0.20494088    -1.5095644     -0.15971257    -0.020738901   -0.078354712    0.041563052   -0.025425042    0.004601815    0.062873194    0.030235554    10.239169      10.239169      10.239169      0              0              0              0.20494088   
     10400   0.96482077     0.20823507    -1.5114648     -0.3042099     -0.04405878    -0.088854176   -0.047419056    0.0040968916  -0.00010259688  0.078203593    0.040077448    10.184888      10.184888      10.184888      0              0              0              0.20823507   
     10500   0.98988629     0.21164579    -1.5628867      0.1377849      0.042957607   -0.023321138    0.058335796    0.093858163    0.058346623   -0.077399551   -0.05058709     10.129881      10.129881      10.129881      0              0              0              0.21164579   
     10600   1.0320737      0.21502145    -1.6268858     -0.62216574    -0.10470568    -0.084521116   -0.084067732   -0.14552819    -0.041866877    0.067837237    0.043908231    10.076591      10.076591      10.076591      0              0              0              0.21502145   
     10700   1.0513631      0.21849021    -1.6574095     -0.085199107    0.0006060074  -0.0083258547   0.08787092    -0.077727044   -0.072156279   -0.022801031   -0.091690418    10.022981      10.022981      10.022981      0              0              0              0.21849021   
     10800   1.0339509      0.22184205    -1.6434414     -0.038497829    0.012457813    0.019018838    0.0078984718   0.010456129    0.030709764    0.014171504    0.046402272    9.972245       9.972245       9.972245       0              0              0              0.22184205   
     10900   1.0137786      0.2252361     -1.644095      -0.71625948    -0.11983157    -0.16462383    -0.050815199   -0.14405567     0.022565255   -0.06004047    -0.010601217    9.9219012      9.9219012      9.9219012      0              0              0              0.2252361    
     11000   1.0189163      0.22880387    -1.6901303     -0.038395045    0.02724901     0.1267479      0.069038969   -0.11403984    -0.0029261141   0.073063481   -0.035959       9.8700595      9.8700595      9.8700595      0              0              0              0.22880387   
     11100   0.988044       0.23236824    -1.6926026      0.6432453      0.18192156     0.19119277     0.06663264     0.28793928    -0.13441769    -0.10047244     0.0562419      9.8193326      9.8193326      9.8193326      0              0              0              0.23236824   
     11200   1.0045838      0.23561051    -1.7541696     -0.26260051    -0.0016647439  -0.11888872     0.11962386    -0.005729372   -0.060359222   -0.049439002    0.14524263     9.7740826      9.7740826      9.7740826      0              0              0              0.23561051   
     11300   1.0080778      0.23894363    -1.7924525     -0.0013265831   0.062249115    0.11451849     0.039362666    0.032866194    0.11115771    -0.051132692   -0.042237762    9.7284221      9.7284221      9.7284221      0              0              0              0.23894363   
     11400   0.95012337     0.24249062    -1.750331      -0.1413176      0.042095113    0.098663824    0.042075666   -0.014454152    0.048204525   -0.019859828    0.00986897     9.6807554      9.6807554      9.6807554      0              0              0              0.24249062   
     11500   0.93942744     0.2460715     -1.7612354     -0.73028671    -0.083026048   -0.17376465     0.013035223   -0.088348718   -0.035323342   -0.077129842   -0.0083418885   9.633567       9.633567       9.633567       0              0              0              0.2460715    
     11600   0.96472243     0.24967808    -1.8104603     -0.21609078     0.035073252    0.076424867   -0.14485252     0.17364741    -0.078967169    0.031268454    0.035342191    9.5869565      9.5869565      9.5869565      0              0              0              0.24967808   
     11700   0.90309094     0.25334063    -1.7169477     -0.081355074    0.066266855    0.079569694    0.060754854    0.058476018   -0.022036405    0.0092210963  -0.036808736    9.5405325      9.5405325      9.5405325      0              0              0              0.25334063   
     11800   0.92943034     0.25695535    -1.7230736     -0.25380334     0.019177147    0.031098007    0.048542513   -0.022109079    0.091813467    0.019066264    0.012041913    9.4955838      9.4955838      9.4955838      0              0              0              0.25695535   
     11900   1.0428818      0.26053969    -1.8455969     -0.10487845     0.043632658   -0.073712533    0.12493915     0.079671357   -0.09922776     0.014436481   -0.081975349    9.4518378      9.4518378      9.4518378      0              0              0              0.26053969   
     12000   1.0702797      0.26423445    -1.8618542      0.25424579     0.12460035     0.25696184    -0.054255114    0.17109431     0.11154112     0.053071414    0.062005085    9.4075763      9.4075763      9.4075763      0              0              0              0.26423445   
     12100   1.0829901      0.26764664    -1.8885165      0.074363983    0.08431302     0.15030776     0.14175799    -0.039126683    3.117469e-05  -0.059239667   -0.032734189    9.3674266      9.3674266      9.3674266      0              0              0              0.26764664   
     12200   1.0596395      0.27097771    -1.9133043      0.14996034     0.1186766      0.18087279     0.14426529     0.030891712   -0.10903593     0.01715555    -0.039594717    9.3288842      9.3288842      9.3288842      0              0              0              0.27097771   
     12300   0.94805563     0.27456763    -1.8419662     -0.71574558    -0.072074593   -0.13337797    -0.043105941   -0.039739864    0.078101328    0.14700967    -0.10114137     9.288048       9.288048       9.288048       0              0              0              0.27456763   
     12400   0.94072014     0.27849013    -1.9037588     -0.77998311    -0.070951462   -0.29229368     0.0076412203   0.071798075   -0.047242641   -0.031794294   -0.050434331    9.2442345      9.2442345      9.2442345      0              0              0              0.27849013   
     12500   0.90939131     0.28249837    -1.903317      -0.35679242     0.048604635    0.16559838    -0.022883225    0.0030987507   0.038842253    0.038372209    0.028337971    9.2003054      9.2003054      9.2003054      0              0              0              0.28249837   
     12600   0.92499263     0.28630245    -1.9398826     -0.25365198     0.079560627   -0.024021363    0.14841989     0.11428335    -0.05185308    -0.030773893    0.02603659     9.1593756      9.1593756      9.1593756      0              0              0              0.28630245   
     12700   0.9415032      0.28997128    -1.9444894     -0.63627023    -0.025563427   -0.14305473     0.0033020733   0.063062374    0.015342769   -0.11178637    -0.0022043919   9.1205823      9.1205823      9.1205823      0              0              0              0.28997128   
     12800   0.96184112     0.29389665    -1.9436094     -0.55870912    -0.013531965   -0.025018024    0.055204181   -0.070782054    0.014094037    0.12087128    -0.06698678     9.0797944      9.0797944      9.0797944      0              0              0              0.29389665   
     12900   1.02174        0.29772183    -1.9788359     -0.58421284    -0.035272988   -0.12475596     0.017807041    0.0011299546  -0.025499674    0.014281357    0.17577993     9.0407404      9.0407404      9.0407404      0              0              0              0.29772183   
     13000   1.034016       0.30159662    -1.946918      -0.058789957    0.094553043    0.058868025    0.053295705    0.1714954      0.13525734     0.0003947551  -0.14685104     9.0018562      9.0018562      9.0018562      0              0              0              0.30159662   
     13100   1.0542538      0.30530514    -1.9456492      0.13167425     0.13984353     0.22672127     0.2881188     -0.095309487   -0.25573949     0.11061926     0.10302788     8.9652593      8.9652593      8.9652593      0              0              0              0.30530514   
     13200   1.0603322      0.30897485    -1.9490515     -0.3849653     -0.0051850607   0.033312546   -0.17983396     0.13096623    -0.0072185446   0.12372113     0.025304543    8.9296243      8.9296243      8.9296243      0              0              0              0.30897485   
     13300   1.0000729      0.31281205    -1.8851052      0.37279947     0.21763071     0.14318494     0.30440564     0.20530156     0.015453996   -0.084869149    0.053516578    8.8929613      8.8929613      8.8929613      0              0              0              0.31281205   
     13400   1.0854382      0.31651739    -2.0765117     -1.0640898     -0.17483114    -0.077388726   -0.20404982    -0.24305488    -0.10017201    -0.043895072    0.0042907973   8.8581229      8.8581229      8.8581229      0              0              0              0.31651739   
     13500   0.97490612     0.32061458    -1.9931169     -0.25128896     0.083587312    0.22958698    -0.22771018     0.24888513     0.010971488    0.037316657    0.16396207     8.8202278      8.8202278      8.8202278      0              0              0              0.32061458   
     13600   0.98317752     0.32452687    -2.0607233     -0.99827272    -0.11946774    -0.096044373   -0.061806632   -0.20055221     0.033240471    0.048398689   -0.035017557    8.7846408      8.7846408      8.7846408      0              0              0              0.32452687   
     13700   0.9940954      0.32875575    -2.11714       -1.1494663     -0.1542204     -0.1383572     -0.16346931    -0.16083468     0.0017943194   0.063872835    0.0044726137   8.7468116      8.7468116      8.7468116      0              0              0              0.32875575   
     13800   1.0168224      0.33292919    -2.1708792     -1.0645874     -0.12448996    -0.085030172   -0.22270284    -0.065736856    0.012780528    0.048604482   -0.076792436    8.7101093      8.7101093      8.7101093      0              0              0              0.33292919   
     13900   1.0044266      0.3372631     -2.1766033     -0.15861909     0.15908932     0.25894937     0.19182475     0.026493843    0.089158446    0.10061746     0.0050343237   8.6726393      8.6726393      8.6726393      0              0              0              0.3372631    
     14000   1.0612152      0.34131389    -2.2954395     -0.93409367    -0.069044025   -0.060908541   -0.1286057     -0.01761783     0.11797323     0.044945509    0.0025551479   8.6381931      8.6381931      8.6381931      0              0              0              0.34131389   
     14100   1.0647151      0.34517421    -2.3666256     -0.5850345      0.060406707   -0.085375881    0.19198261     0.074613391   -0.16581474    -0.11482668    -0.054454383    8.60587        8.60587        8.60587        0              0              0              0.34517421   
     14200   1.0233839      0.34891774    -2.4032001     -0.79053953     0.027044319   -0.078041167    0.088609235    0.070564888    0.03824963     0.13716904     0.077125018    8.5749819      8.5749819      8.5749819      0              0              0              0.34891774   
     14300   0.95924738     0.35286639    -2.3892772     -1.3469254     -0.12489063    -0.071503473   -0.21292321    -0.090245213    0.079302051   -0.033603337   -0.02987679     8.5428765      8.5428765      8.5428765      0              0              0              0.35286639   
     14400   0.97462614     0.35717828    -2.4478874     -1.4796552     -0.15793687    -0.010214744   -0.2178977     -0.24569815    -0.028320259    0.032636654   -0.064600167    8.5083604      8.5083604      8.5083604      0              0              0              0.35717828   
     14500   0.90250135     0.36172452    -2.3478791     -0.82976487     0.056274781    0.0030586521   0.11817815     0.047587536   -0.26711761     0.0063191213  -0.06834173     8.472565       8.472565       8.472565       0              0              0              0.36172452   
     14600   0.96460819     0.36599808    -2.4107598     -0.99104627    -0.0066425915   0.15493848    -0.12058185    -0.054284408   -0.085971658    0.096961987   -0.13608103     8.4394594      8.4394594      8.4394594      0              0              0              0.36599808   
     14700   0.96140082     0.37020695    -2.3634177     -0.73429371     0.065369558   -0.0083144802   0.21642144    -0.011998284   -0.074997671    0.018887546    0.18460184     8.4073547      8.4073547      8.4073547      0              0              0              0.37020695   
     14800   0.99427945     0.37440086    -2.366983      -1.4496393     -0.19285674    -0.35506841    -0.13948485    -0.084016957   -0.17615286    -0.08489391     0.19780262     8.3758447      8.3758447      8.3758447      0              0              0              0.37440086   
     14900   1.0631314      0.37884245    -2.4359606     -1.5160162     -0.22964028    -0.30210628    -0.17393457    -0.21288001    -0.0033372377  -0.090445655    0.075235525    8.3429828      8.3429828      8.3429828      0              0              0              0.37884245   
     15000   1.0015489      0.3834468     -2.3396423     -0.65708805     0.065444783    0.020842523   -0.0027120227   0.17820385     0.20372996     0.057340328   -0.005963163    8.3094546      8.3094546      8.3094546      0              0              0              0.3834468    
     15100   1.0227396      0.38803652    -2.390216      -0.93849182    -0.026356365   -0.14490807     0.14000484    -0.074165874    0.097048376   -0.16785954    -0.079830248    8.276563       8.276563       8.276563       0              0              0              0.38803652   
     15200   1.046854       0.39228982    -2.4496805     -0.94458854    -0.02044813     0.09684439     0.05330862    -0.2114974      0.04047793     0.069921386   -0.012190912    8.2465421      8.2465421      8.2465421      0              0              0              0.39228982   
     15300   1.0020269      0.39654282    -2.4290867     -0.95472806    -0.0076303586  -0.15609396     0.13073583     0.0024670558  -0.050793635    0.11720045    -0.1099715      8.2169541      8.2169541      8.2169541      0              0              0              0.39654282   
     15400   1.0002067      0.40083647    -2.5137208     -0.99226479     0.010439074   -0.24481416     0.14080095     0.13533044     0.077765117   -0.19653302     0.096367056    8.1875095      8.1875095      8.1875095      0              0              0              0.40083647   
     15500   0.95416337     0.40519056    -2.5720925     -2.1173576     -0.35706644    -0.15534755    -0.44326052    -0.47259125    -0.1666024      0.0039967782  -0.013449967    8.1580768      8.1580768      8.1580768      0              0              0              0.40519056   
     15600   0.86821543     0.41010069    -2.5251531     -1.5858197     -0.13290177    -0.020252978   -0.13006986    -0.24838248    -0.0083517696  -0.077593051   -0.036346712    8.1253871      8.1253871      8.1253871      0              0              0              0.41010069   
     15700   0.8633349      0.41523567    -2.5278425     -1.5452196     -0.11547492    -0.14909367    -0.1815246     -0.015806494   -0.039370457   -0.02895202    -0.33086286     8.0917541      8.0917541      8.0917541      0              0              0              0.41523567   
     15800   0.95572015     0.42042853    -2.6359887     -1.9350483     -0.27728098    -0.29741821    -0.24407244    -0.29035229     0.0064189872   0.21183979    -0.048550099    8.0583013      8.0583013      8.0583013      0              0              0              0.42042853   
     15900   0.93237994     0.42538364    -2.5589951     -0.79719528     0.14316972     0.10087742    -0.016969582    0.34560133    -0.07732619     0.20601979     0.11255545     8.0268898      8.0268898      8.0268898      0              0              0              0.42538364   
     16000   1.0166827      0.42979939    -2.6362527     -1.1539911     -0.013729076   -0.19784672     0.0055358383   0.15112365     0.078052405   -0.029548479   -0.073387403    7.9993057      7.9993057      7.9993057      0              0              0              0.42979939   
     16100   1.0700503      0.43439617    -2.6917182     -1.3657798     -0.10706348    -0.041076515   -0.032352678   -0.24776124    -0.027123384    0.019650962    0.012500158    7.9709894      7.9709894      7.9709894      0              0              0              0.43439617   
     16200   1.0520781      0.43904544    -2.6644122     -1.0603343      0.013511154   -0.13007188     0.13995376     0.030651579    0.084312174   -0.16490173     0.097654959    7.9427532      7.9427532      7.9427532      0              0              0              0.43904544   
     16300   1.0626365      0.44356243    -2.7121527     -1.4147265     -0.11635804     0.060296013   -0.3835049     -0.025865239    0.18896429     0.10353239     0.22368824     7.9156997      7.9156997      7.9156997      0              0              0              0.44356243   
     16400   1.0227729      0.44793854    -2.7147828     -1.5278908     -0.13828946    -0.16997966    -0.13071019    -0.11417854     0.014102488    0.053764625   -0.27024431     7.889838       7.889838       7.889838       0              0              0              0.44793854   
     16500   1.0064101      0.45251332    -2.7622107     -1.2081326      0.021396093   -0.065002366    0.073250682    0.055939961   -0.10192933     0.027432661   -0.11648536     7.8631599      7.8631599      7.8631599      0              0              0              0.45251332   
     16600   0.91467117     0.45719008    -2.6723307     -1.1935404      0.047233352    0.31330783    -0.24050936     0.068901586    0.16608334    -0.18924903     0.043502007    7.8362562      7.8362562      7.8362562      0              0              0              0.45719008   
     16700   0.96522518     0.46184987    -2.7581658     -2.0105965     -0.29097772    -0.22793531    -0.34342962    -0.30156823     0.25195941     0.10481529     0.099360607    7.8098127      7.8098127      7.8098127      0              0              0              0.46184987   
     16800   0.96903318     0.46670564    -2.7460788     -1.6748644     -0.15913288    -0.21808992    -0.23804153    -0.021267194   -0.28819153     0.14473407     0.034875243    7.7826329      7.7826329      7.7826329      0              0              0              0.46670564   
     16900   0.98689572     0.47190206    -2.7409722     -1.2349647      0.014185232   -0.10468993    -0.095672728    0.24291835    -0.14116704     0.20130034    -0.0054891699   7.7539608      7.7539608      7.7539608      0              0              0              0.47190206   
     17000   1.0130048      0.47680899    -2.7347807     -1.5847552     -0.15686331    -0.23393972    -0.13307176    -0.10357845     0.043061876   -0.12093192     0.031870632    7.7272699      7.7272699      7.7272699      0              0              0              0.47680899   
     17100   1.0487916      0.48158675    -2.7726264     -1.0020743      0.089851267    0.097346579    0.13120583     0.04100139     0.11630226     0.10562113     0.025034982    7.7016312      7.7016312      7.7016312      0              0              0              0.48158675   
     17200   1.0667681      0.48607725    -2.8039443     -1.6866874     -0.2098504      0.37065609    -0.42371138    -0.57649591    -0.1891755     -0.34614552     0.0087267582   7.6778413      7.6778413      7.6778413      0              0              0              0.48607725   
     17300   1.0112173      0.49078103    -2.7427432     -1.3983244     -0.073538217   -0.18030602    -0.13558362     0.095274984    0.0069961874   0.25833702    -0.10019681     7.6532336      7.6532336      7.6532336      0              0              0              0.49078103   
     17400   1.0792771      0.49552716    -2.8766681     -1.3308399     -0.02927792    -0.13573813    -0.079202099    0.12710647     0.093213519   -0.10909507     0.16105879     7.6287211      7.6287211      7.6287211      0              0              0              0.49552716   
     17500   0.99898923     0.50053319    -2.8076086     -1.4009932     -0.038393619    0.094300861   -0.013333216   -0.1961485     -0.03775694    -0.073805427   -0.15878267     7.6032032      7.6032032      7.6032032      0              0              0              0.50053319   
     17600   0.97498462     0.50543431    -2.8171558     -2.5031705     -0.52435561    -0.49244122    -0.49713983    -0.58348576    -0.32914219    -0.093223189   -0.11101752     7.5785477      7.5785477      7.5785477      0              0              0              0.50543431   
     17700   0.89952939     0.51137008    -2.7487889     -1.8227912     -0.19364654     0.1772265     -0.51511808    -0.24304804     0.26996485    -0.086052778    0.10921989     7.5491106      7.5491106      7.5491106      0              0              0              0.51137008   
     17800   0.91962962     0.51754565    -2.7988711     -1.602829      -0.083044962   -0.086453825    0.0033469292  -0.16602799    -0.17601064    -0.090033314    0.10886368     7.518964       7.518964       7.518964       0              0              0              0.51754565   
     17900   0.94560301     0.52307868    -2.8263545     -1.1488368      0.12658751     0.16221611     0.18331433     0.034232107   -0.056883957   -0.047013835   -0.042082961    7.4923586      7.4923586      7.4923586      0              0              0              0.52307868   
     18000   0.94652152     0.52792011    -2.7819974     -1.4547818     -0.041018304    0.26137808    -0.2265832     -0.15784979    -0.18961348     0.12140884    -0.072778564    7.4693847      7.4693847      7.4693847      0              0              0              0.52792011   
     18100   1.0499617      0.53269113    -2.8532987     -1.4180663     -0.063843185   -0.11127895     0.071384078   -0.15163469     0.0097011769   0.011749575    0.2502204      7.447018       7.447018       7.447018       0              0              0              0.53269113   
     18200   1.0867473      0.53760603    -2.8283301     -1.5309469     -0.15863641    -0.23862786    -0.18467992    -0.052601448    0.1335601      0.2811991      0.20046942     7.4242545      7.4242545      7.4242545      0              0              0              0.53760603   
     18300   1.1193339      0.54289002    -2.8537136     -1.1746177      0.0041901251  -0.11300906     0.016231905    0.10934753     0.26510653    -0.23951896    -0.35647794     7.4000889      7.4000889      7.4000889      0              0              0              0.54289002   
     18400   1.0884929      0.54794056    -2.8455738     -0.96624576     0.12689922     0.11697974     0.26664323    -0.0029253137  -0.13576482    -0.16373284     0.17154245     7.3772824      7.3772824      7.3772824      0              0              0              0.54794056   
     18500   1.0613055      0.55252627    -2.8931726     -1.1488985      0.080505925   -0.019398566    0.061619854    0.19929649    -0.30229883     0.27113101    -0.23027588     7.3568164      7.3568164      7.3568164      0              0              0              0.55252627   
     18600   1.0938223      0.55734913    -3.0442872     -1.6863217     -0.13911653    -0.087128782   -0.14412972    -0.18609109    -0.070805191   -0.058835786    0.072719755    7.3355349      7.3355349      7.3355349      0              0              0              0.55734913   
     18700   1.0435108      0.56264046    -3.0352836     -1.1611059      0.16200867    -0.04707644     0.7226843     -0.18958186    -0.021145799    0.33645447     0.077044371    7.3124668      7.3124668      7.3124668      0              0              0              0.56264046   
     18800   1.0577705      0.56710119    -3.1003948     -0.95669814     0.29127046     0.13534599     0.09736835     0.64109704    -0.10627179    -0.17469628    -0.18221694     7.2932434      7.2932434      7.2932434      0              0              0              0.56710119   
     18900   1.0083725      0.57122003    -3.0851011     -1.1742896      0.21073628     0.25210925     0.13965637     0.24044322    -0.083836584    0.25381365    -0.10841079     7.2756715      7.2756715      7.2756715      0              0              0              0.57122003   
     19000   0.96650271     0.57543946    -3.0911732     -1.3902077      0.13520746     0.34598901    -0.30856857     0.36820194     0.23563865     0.25737194    -0.24717348     7.2578449      7.2578449      7.2578449      0              0              0              0.57543946   
     19100   0.97925324     0.58000854    -3.1727445     -1.5754232      0.071597228   -0.085627283    0.15353693     0.14688204     0.093506572    0.2098742      0.035904395    7.2387364      7.2387364      7.2387364      0              0              0              0.58000854   
     19200   1.0154153      0.58469549    -3.2775609     -1.4867557      0.14633221     0.1331692      0.29446851     0.01135894     0.092044205   -0.077851311   -0.11510161     7.2193425      7.2193425      7.2193425      0              0              0              0.58469549   
     19300   0.95560194     0.58898374    -3.2238181     -2.1499101     -0.18865037    -0.14836398    -0.42524125     0.0076541214   0.086017588    0.018624567    0.16398526     7.201779       7.201779       7.201779       0              0              0              0.58898374   
     19400   0.91413736     0.59403136    -3.1779582     -2.1971455     -0.20712108    -0.19118471    -0.2091942     -0.22098432     0.083242309   -0.22558797     0.052413288    7.1813226      7.1813226      7.1813226      0              0              0              0.59403136   
     19500   0.94815777     0.60032895    -3.226599      -2.3808299     -0.31072826    -0.28387084    -0.20943128    -0.43888267    -0.035072304    0.063923765    0.057403339    7.156123       7.156123       7.156123       0              0              0              0.60032895   
     19600   0.92811114     0.60703998    -3.1520944     -2.3105078     -0.29999877    -0.64844759    -0.25097007    -0.00057864442 -0.15204459    -0.25154088     0.41869187     7.1296541      7.1296541      7.1296541      0              0              0              0.60703998   
     19700   1.0353851      0.61345726    -3.2351134     -1.9969294     -0.17128186     0.14534375    -0.6442146     -0.014974741    0.066865484   -0.10598836    -0.044892129    7.1047062      7.1047062      7.1047062      0              0              0              0.61345726   
     19800   1.0892211      0.6193067     -3.2573584     -1.8007191     -0.095161125    0.086559411    0.085556753   -0.45759954    -0.045944745    0.042616037   -0.31826775     7.0822671      7.0822671      7.0822671      0              0              0              0.6193067    
     19900   1.103592       0.62460158    -3.2648067     -1.6666435     -0.027793612   -0.087800752    0.00081672092  0.0036031939  -0.15297714     0.13249449    -0.26667928     7.0621977      7.0621977      7.0621977      0              0              0              0.62460158   
     20000   1.0830238      0.62970016    -3.2665419     -2.0144683     -0.2085678     -0.31148394    -0.25476385    -0.059455619   -0.035308479   -0.028774402    0.13450058     7.0430855      7.0430855      7.0430855      0              0              0              0.62970016   
     20100   1.0355296      0.6348164     -3.2617483     -1.0702234      0.37280857     0.74533401    -0.007021685    0.38011339     0.082590446    0.28718383     0.028169356    7.0241134      7.0241134      7.0241134      0              0              0              0.6348164    
     20200   1.0319355      0.63915281    -3.3094697     -1.9920844     -0.12944499    -0.12550234    -0.64115171     0.37831909     0.41783922    -0.0020449704   0.17166192     7.008192       7.008192       7.008192       0              0              0              0.63915281   
     20300   1.0196217      0.64412036    -3.3366358     -1.5412658      0.16020133     0.38033036    -0.18891084     0.28918446    -0.22059082    -0.17362689     0.039511145    6.9901295      6.9901295      6.9901295      0              0              0              0.64412036   
     20400   1.0667025      0.64900159    -3.4438918     -1.6001719      0.14848357     0.72402109    -0.15733743    -0.12123295     0.33847875     0.2257768      0.18089625     6.9725607      6.9725607      6.9725607      0              0              0              0.64900159   
     20500   0.99162644     0.6537248     -3.3735832     -1.780715       0.067075593    0.17565749    -0.71752772     0.74309701     0.026223789   -0.12614879    -0.053788886    6.9557277      6.9557277      6.9557277      0              0              0              0.6537248    
     20600   0.99701826     0.65872722    -3.4268871     -1.8824974      0.033738803   -0.068259029    0.32592433    -0.1564489      0.042523782   -0.57956576     0.24650919     6.9380755      6.9380755      6.9380755      0              0              0              0.65872722   
     20700   0.99995969     0.66398632    -3.4809081     -1.9391769      0.029753433    0.022436031   -0.014984075    0.081808342    0.11367721     0.145101      -0.10877595     6.9197093      6.9197093      6.9197093      0              0              0              0.66398632   
     20800   1.0626228      0.66956131    -3.6348319     -2.1164563     -0.041140873   -0.031988741    0.15678994    -0.24822382    -0.30744611    -0.13190052    -0.3556807      6.9004505      6.9004505      6.9004505      0              0              0              0.66956131   
     20900   0.98635258     0.6753037     -3.582888      -2.3586813     -0.15220399    -0.45534991    -0.00080874168 -0.00045331398 -0.060788788   -0.088120789   -0.16956612     6.8808356      6.8808356      6.8808356      0              0              0              0.6753037    
     21000   0.94411034     0.68095158    -3.5701674     -2.8579702     -0.43140606    -0.4594677     -0.60574685    -0.22900364    -0.12060125    -0.010785645   -0.079508486    6.8617593      6.8617593      6.8617593      0              0              0              0.68095158   
     21100   0.96898313     0.68705271    -3.6297478     -2.2890627     -0.065908461    0.17173944    -0.47623231     0.10676749     0.24240184     0.046817332   -0.090052911    6.8413878      6.8413878      6.8413878      0              0              0              0.68705271   
     21200   1.0195485      0.69310339    -3.715305      -2.5186637     -0.20480247    -0.11098447     0.10870502    -0.61212796     0.23062551    -0.28202855    -0.47856108     6.8214215      6.8214215      6.8214215      0              0              0              0.69310339   
     21300   0.96569099     0.69907592    -3.6360416     -2.2304071     -0.022662306    0.4852633     -0.39921584    -0.15403438     0.44952372    -0.11862966    -0.25175537     6.8019397      6.8019397      6.8019397      0              0              0              0.69907592   
     21400   1.0388344      0.70493105    -3.7353512     -2.6420442     -0.29296507    -0.6850152     -0.11535852    -0.078521505    0.20583872    -0.20395916    -0.3569926      6.7830551      6.7830551      6.7830551      0              0              0              0.70493105   
     21500   0.99199085     0.71091806    -3.644682      -1.3611732      0.51894595     0.7790423      0.31676955     0.46102601     0.098403007    0.1235774      0.027154974    6.7639602      6.7639602      6.7639602      0              0              0              0.71091806   
     21600   1.0591899      0.71551038    -3.6809608     -2.0721379      0.018201219   -0.089349339    0.20294322    -0.058990225   -0.017933913   -0.0076348589  -0.089946529    6.7494582      6.7494582      6.7494582      0              0              0              0.71551038   
     21700   1.1990907      0.72022295    -3.7985766     -2.4302531     -0.27585805    -0.42953758    -0.14351844    -0.25451813    -0.11854675    -0.50054785     0.098717071    6.734705       6.734705       6.734705       0              0              0              0.72022295   
     21800   1.1803472      0.72540282    -3.7436749     -1.7911708      0.12584804     0.050506915    0.30462683     0.022410373    0.03126672     0.1998782      0.29146107     6.7186365      6.7186365      6.7186365      0              0              0              0.72540282   
     21900   1.2018823      0.73027712    -3.8318285     -2.1894758     -0.10055024     0.012087186   -0.24253484    -0.07120307    -0.0095557384   0.095529682    0.26232328     6.7036551      6.7036551      6.7036551      0              0              0              0.73027712   
     22000   1.0292338      0.73542361    -3.703786      -1.8905996      0.18522979     0.27084826     0.133792       0.15104912    -0.010289579   -0.36820311    -0.38598614     6.6879811      6.6879811      6.6879811      0              0              0              0.73542361   
     22100   1.0685157      0.74022268    -3.8591538     -2.6578007     -0.26473497    -0.44124369     0.34400293    -0.69696415     0.18926062    -0.23050181    -0.54747643     6.6734964      6.6734964      6.6734964      0              0              0              0.74022268   
     22200   1.0253134      0.7455694     -3.8695378     -1.8321968      0.34368096     0.7966573      0.71652261    -0.48213701    -0.41718767    -0.16141281    -0.25041687     6.6575055      6.6575055      6.6575055      0              0              0              0.7455694    
     22300   1.008543       0.7505656     -3.9196281     -2.1947622      0.14985073     0.36061784    -0.52206467     0.61099903     0.19341059    -0.61934945     0.090840332    6.6427006      6.6427006      6.6427006      0              0              0              0.7505656    
     22400   0.98719324     0.75487551    -3.9461712     -1.605032       0.59549609     0.64412642     0.039749096    1.1026127     -0.13401853     0.16773633     0.017466133    6.6300344      6.6300344      6.6300344      0              0              0              0.75487551   
     22500   0.96501932     0.75815952    -3.9552706     -1.877188       0.43958868     0.58428173     0.50021226     0.23427204     0.086698203   -0.19492277    -0.26653362     6.6204477      6.6204477      6.6204477      0              0              0              0.75815952   
     22600   1.0130855      0.76125768    -4.0649675     -2.3290032      0.15497417     0.50830907    -0.096285515    0.052898975   -0.4490802     -0.061971363   -0.073305129    6.6114543      6.6114543      6.6114543      0              0              0              0.76125768   
     22700   0.95004641     0.76487537    -3.9980401     -1.4784286      0.76603466     1.0479823      0.85077465     0.39934708     0.22965378     0.19054686     0.20582085     6.6010142      6.6010142      6.6010142      0              0              0              0.76487537   
     22800   0.97888502     0.76796542    -4.0520839     -2.0979699      0.34427759     0.30087671     0.51528607     0.21666998    -0.0097927176   0.019219296    0.52260078     6.5921488      6.5921488      6.5921488      0              0              0              0.76796542   
     22900   1.0144526      0.77104712    -4.1099304     -2.7597189     -0.11485729     0.21805772    -0.23680238    -0.32582721     0.29856681    -0.12289909    -0.051848268    6.5833547      6.5833547      6.5833547      0              0              0              0.77104712   
     23000   1.0177336      0.77532365    -4.1113443     -2.0158711      0.40634421     0.63530499     0.2882672      0.29546043    -0.020934503    0.045927625   -0.47473443     6.5712282      6.5712282      6.5712282      0              0              0              0.77532365   
     23100   1.0018693      0.77959135    -4.0786937     -1.6504902      0.66117392     0.94830012     0.66753333     0.3676883     -0.49009866     0.12334117     0.1048137      6.5592154      6.5592154      6.5592154      0              0              0              0.77959135   
     23200   1.0110718      0.78309545    -4.0739019     -1.4217521      0.81379651     1.249787       0.65781165     0.53379085     0.34851787    -0.0031774407  -0.50905317     6.5494173      6.5494173      6.5494173      0              0              0              0.78309545   
     23300   1.039597       0.78542406    -4.0940366     -1.5042876      0.7412622      0.44564987     1.0579596      0.72017709     0.16068522     0.62239646     0.36234549     6.5429383      6.5429383      6.5429383      0              0              0              0.78542406   
     23400   1.1509767      0.78754193    -4.2517485     -2.7813575     -0.17715527     0.080040849   -0.16747366    -0.44403299    -0.19650324     0.12603707    -0.15822991     6.5370679      6.5370679      6.5370679      0              0              0              0.78754193   
     23500   1.0487728      0.79150628    -4.1466234     -1.7967878      0.56451822     0.73787944     0.87942387     0.076251342    0.35767906    -0.003183097   -0.0079487938   6.5261358      6.5261358      6.5261358      0              0              0              0.79150628   
     23600   1.0382935      0.79503959    -4.2139974     -2.4197874      0.17675673     0.042009358   -0.0055655322   0.49382637     0.24500754     0.086141515    0.023462399    6.5164536      6.5164536      6.5164536      0              0              0              0.79503959   
     23700   1.0403425      0.79920249    -4.3077883     -2.0414242      0.51850297     0.91807506     0.26014618     0.37728768     0.48738261     0.2071131     -0.049988311    6.5051196      6.5051196      6.5051196      0              0              0              0.79920249   
     23800   0.86761671     0.80241929    -4.1054899     -1.8230775      0.72034966     0.78782177     0.25633294     1.1168943     -0.83814707    -0.51791786     0.089165486    6.4964152      6.4964152      6.4964152      0              0              0              0.80241929   
     23900   0.96627933     0.80525255    -4.2742869     -1.8539557      0.7160593      0.58389107     0.37250775     1.1917791      0.47746129    -0.098175657    0.22684135     6.4887871      6.4887871      6.4887871      0              0              0              0.80525255   
     24000   1.0079531      0.807983      -4.3325629     -2.0780732      0.55098547     0.37502843     0.47473822     0.80318976     0.13878421     0.15099231    -0.073738277    6.4814696      6.4814696      6.4814696      0              0              0              0.807983     
     24100   1.0081093      0.81064252    -4.3234887     -2.2679554      0.40600675     0.024349103    0.26490553     0.92876561     0.29051852     0.24883306     0.28991848     6.4743738      6.4743738      6.4743738      0              0              0              0.81064252   
     24200   0.9687521      0.81346159    -4.2473293     -1.9873805      0.60202541     0.6493966      0.25490378     0.90177586    -0.23746855    -0.26290498    -0.25705167     6.4668861      6.4668861      6.4668861      0              0              0              0.81346159   
     24300   0.99683176     0.81609624    -4.2517145     -1.1663956      1.1852295      0.76971224     1.1576632      1.6283132      0.23986078    -0.22274617     0.18022337     6.4599194      6.4599194      6.4599194      0              0              0              0.81609624   
     24400   1.1075946      0.81750757    -4.3629302     -1.7814958      0.68993883     1.0761949      0.38407202     0.60954958    -0.00039675474  0.12287972    -0.13322243     6.4561999      6.4561999      6.4561999      0              0              0              0.81750757   
     24500   1.1175574      0.81899578    -4.3391926     -1.2959469      1.0239616      1.27315        0.73892364     1.0598111      0.09250479     0.049857888    0.11282653     6.4522869      6.4522869      6.4522869      0              0              0              0.81899578   
     24600   1.0011938      0.82019388    -4.1594992     -0.90071483     1.3156674      1.2432322      1.1601804      1.5435897      0.76018116     0.015085727    0.038338255    6.4491437      6.4491437      6.4491437      0              0              0              0.82019388   
     24700   1.0737398      0.82061864    -4.3050897     -1.6364068      0.79534828     0.84594952     0.15677549     1.3833198     -0.45139928    -0.056098849   -0.15237294     6.4480308      6.4480308      6.4480308      0              0              0              0.82061864   
     24800   1.0550534      0.82119385    -4.365077      -1.855711       0.69778999     0.75792282     0.7202025      0.61524463    -0.1185529     -0.13251146     0.30316379     6.4465249      6.4465249      6.4465249      0              0              0              0.82119385   
     24900   0.98350158     0.82281521    -4.3651159     -2.361682       0.4006047      0.43330643     0.23798997     0.53051769     0.15845392     0.35942521     0.2661519      6.4422878      6.4422878      6.4422878      0              0              0              0.82281521   
     25000   0.97323073     0.82544543    -4.4045035     -2.284468       0.50088677     0.25021984     0.40217823     0.85026224     0.13014371    -0.022617842   -0.22539593     6.4354379      6.4354379      6.4354379      0              0              0              0.82544543   
     25100   0.96650806     0.8285778     -4.4166696     -2.43325        0.40743902     0.83734501     0.50453646    -0.1195644     -0.49737614     0.22871306     0.010499448    6.4273181      6.4273181      6.4273181      0              0              0              0.8285778    
     25200   0.99446283     0.83152651    -4.4566764     -2.1096864      0.6521845      0.68316682     1.0351641      0.23822255     0.35750565    -0.1122347      0.54793669     6.4197117      6.4197117      6.4197117      0              0              0              0.83152651   
     25300   0.91221361     0.83377392    -4.3108482     -1.6369593      0.99477578     1.1517638      0.85898953     0.97357402    -0.057839539    0.44529542    -0.18908484     6.4139385      6.4139385      6.4139385      0              0              0              0.83377392   
     25400   0.97758766     0.83502335    -4.3565343     -2.016273       0.66893849     0.4314995      0.47698359     1.0983324     -0.25472197     0.81796045     0.54124006     6.4107379      6.4107379      6.4107379      0              0              0              0.83502335   
     25500   1.0358693      0.83645777    -4.3754791     -1.3714059      1.1087158      1.4542539      0.65314681     1.2187467     -0.16003477     0.15157205     0.58564429     6.4070712      6.4070712      6.4070712      0              0              0              0.83645777   
     25600   1.0819377      0.83658031    -4.3822347     -1.2871641      1.1257927      1.0862067      1.1833359      1.1078355      0.42870392     0.41645304     0.16497818     6.4067584      6.4067584      6.4067584      0              0              0              0.83658031   
     25700   1.0326978      0.83591723    -4.2729783     -0.60751286     1.6142048      1.53534        0.99616435     2.3111099     -0.42987909     0.30374237     0.52317546     6.408452       6.408452       6.408452       0              0              0              0.83591723   
     25800   1.0663792      0.83393919    -4.3162745     -1.0976213      1.2335342      1.198909       1.2738425      1.2278512     -0.047772213   -0.28235036     0.50847423     6.4135148      6.4135148      6.4135148      0              0              0              0.83393919   
     25900   1.0397461      0.83256441    -4.3065406     -1.4592925      0.9804785      0.73051817     0.75603462     1.4548827      0.32953165    -0.14816426     0.57641921     6.4170429      6.4170429      6.4170429      0              0              0              0.83256441   
     26000   1.005907       0.832228      -4.3199879     -0.99068611     1.3830007      0.90243448     1.1366121      2.1099554     -0.25923147    -0.18399558     0.2032426      6.4179075      6.4179075      6.4179075      0              0              0              0.832228     
     26100   0.97546648     0.83189352    -4.3330847     -1.6516919      0.92681185     1.1742751      0.4739096      1.1322509      0.2382708     -0.28096073     0.04329134     6.4187675      6.4187675      6.4187675      0              0              0              0.83189352   
     26200   0.98160933     0.83261361    -4.3700739     -2.0353649      0.65826214     0.95898343     0.622505       0.39329798     0.10729097    -0.48548983    -0.180715       6.4169166      6.4169166      6.4169166      0              0              0              0.83261361   
     26300   0.95299465     0.83406755    -4.3277854     -1.8449968      0.80407454     0.2761603      1.1376082      0.99845509    -0.65843132    -0.15917319     0.34067303     6.4131857      6.4131857      6.4131857      0              0              0              0.83406755   
     26400   1.0788148      0.83539398    -4.5126939     -2.716806       0.14107288     0.24251887     0.55544678    -0.37474701    -0.027074776    0.20889056     0.52835018     6.4097897      6.4097897      6.4097897      0              0              0              0.83539398   
     26500   0.909382       0.83750638    -4.2687965     -0.57415774     1.7796143      1.5168572      1.9866538      1.835332       0.019364625   -0.21012832     0.13422382     6.4043961      6.4043961      6.4043961      0              0              0              0.83750638   
     26600   1.0616852      0.83772435    -4.5048399     -2.0217657      0.68427541     0.32426282     0.86848481     0.8600786      0.39701878    -0.19202237     0.10631016     6.4038406      6.4038406      6.4038406      0              0              0              0.83772435   
     26700   1.0241428      0.83805238    -4.4657313     -1.4505356      1.1326374      0.56097089     1.5107186      1.3262226      0.063615754   -0.24142809     0.27292729     6.403005       6.403005       6.403005       0              0              0              0.83805238   
     26800   0.97561247     0.83832088    -4.4259887     -1.2280769      1.3274507      1.5624403      1.1599877      1.2599242      0.10705622    -0.021304979    0.6108738      6.4023213      6.4023213      6.4023213      0              0              0              0.83832088   
     26900   1.0441687      0.8385052     -4.5614587     -2.1941645      0.61658522     1.0582913      0.13512498     0.65633934    -0.64374838     0.079816417   -0.37092036     6.4018521      6.4018521      6.4018521      0              0              0              0.8385052    
     27000   1.0015833      0.83929386    -4.5337649     -2.8291246      0.16005881     0.059765395    0.3319041      0.08850693    -0.25198345     0.38471023    -0.021890714    6.3998463      6.3998463      6.3998463      0              0              0              0.83929386   
     27100   0.96509379     0.84157835    -4.500265      -1.904368       0.88403559     0.29251555     1.0683708      1.2912205      0.13648501    -0.076195145   -0.27063269     6.3940502      6.3940502      6.3940502      0              0              0              0.84157835   
     27200   0.91307498     0.8436403     -4.4161969     -2.0146262      0.7967081      0.20275627     1.1963692      0.99099887     0.046727468   -0.11850048    -0.059801467    6.3888367      6.3888367      6.3888367      0              0              0              0.8436403    
     27300   0.9447877      0.84621638    -4.4331088     -1.9334559      0.83818294     0.19948801     1.0392828      1.275778      -0.52488367     0.32782183     0.19242942     6.3823471      6.3823471      6.3823471      0              0              0              0.84621638   
     27400   1.0042588      0.84829372    -4.4462831     -1.757227       0.91785363     1.5020561      0.62734278     0.62416196    -0.023469781    0.93797274     0.45504454     6.377133       6.377133       6.377133       0              0              0              0.84829372   
     27500   1.0246754      0.8491558     -4.3857682     -0.65647497     1.6982848      1.6767448      2.1414075      1.2767021     -0.31270719     0.74618936    -0.078573856    6.3749742      6.3749742      6.3749742      0              0              0              0.8491558    
     27600   1.0581757      0.84877566    -4.3821365     -1.3076893      1.1536558      1.7303346      1.1282446      0.60238815    -0.32525304     0.079413625   -0.065039037    6.3759258      6.3759258      6.3759258      0              0              0              0.84877566   
[...]
    136000   0.095897997    0.2659682     -4.6557016     -4.8705581     -0.086556747   -0.072144547   -0.12610968    -0.061416019   -0.015612019   -0.0084131804   0.052072892    23.242954      5.9655546      5.9655546      0              0              0              0.2659682    
    137000   0.11018795     0.26332177    -4.6589481     -5.4701813     -0.23356372    -0.15333207    -0.29041592    -0.25694318    -0.014164818    0.012254854   -0.043657906    23.476549      5.9655546      5.9655546      0              0              0              0.26332177   
    138000   0.094567037    0.26070168    -4.6921256     -5.1226902     -0.13549518    -0.033352958   -0.13473989    -0.23839271     0.041959667   -0.049975814    0.070415054    23.712493      5.9655546      5.9655546      0              0              0              0.26070168   
    139000   0.097462426    0.25810765    -4.6793445     -4.8172512     -0.066490738    0.070461538   -0.072542967   -0.19739079    -0.0092135835  -0.013017598    0.028013303    23.950807      5.9655546      5.9655546      0              0              0              0.25810765   
    140000   0.11151047     0.25553944    -4.6825343     -5.0250359     -0.11822904    -0.00046654515 -0.098933716   -0.25528686     0.034510417   -0.054164364   -0.0070731943   24.191517      5.9655546      5.9655546      0              0              0              0.25553944   
    141000   0.097465539    0.25299678    -4.6957001     -5.0866874     -0.123383       0.0033167464  -0.085624752   -0.287841      -0.009174333   -0.0092109709  -0.0091298844   24.434645      5.9655546      5.9655546      0              0              0              0.25299678   
    142000   0.093186538    0.25047942    -4.7156129     -4.7913713     -0.04892074     0.0733959     -0.012258148   -0.20789997     0.016156167   -0.018423134    0.041135502    24.680218      5.9655546      5.9655546      0              0              0              0.25047942   
    143000   0.09468822     0.24798711    -4.7096882     -5.1000486     -0.11986402    -0.0061274933  -0.047352557   -0.30611202     0.018386298   -0.040028869    0.0034701342   24.928258      5.9655546      5.9655546      0              0              0              0.24798711   
    144000   0.10469771     0.24551959    -4.7228774     -5.1817652     -0.13730107    -0.047408211   -0.13459088    -0.22990412     0.0033052589   0.025795545    0.078294953    25.178791      5.9655546      5.9655546      0              0              0              0.24551959   
    145000   0.098574637    0.24307663    -4.7190335     -5.3181623     -0.16490572    -0.086432454   -0.11696634    -0.29131835    -0.044957431   -0.027210448    0.023467371    25.431842      5.9655546      5.9655546      0              0              0              0.24307663   
    146000   0.090744842    0.24065798    -4.7198475     -4.7949688     -0.046065871    0.0062784666  -0.016992178   -0.1274839      0.0090266936   0.025079712    0.07007872     25.687437      5.9655546      5.9655546      0              0              0              0.24065798   
    147000   0.094241535    0.23826339    -4.7148593     -4.8631203     -0.062580196   -0.032427321    0.0073468922  -0.16266016     0.030371915    0.049538994    0.074496358    25.9456        5.9655546      5.9655546      0              0              0              0.23826339   
    148000   0.10216154     0.23589263    -4.7467609     -4.893785      -0.064227161   -0.013920149   -0.0061546639  -0.17260667    -0.039805043   -0.0073200437   0.028317514    26.206357      5.9655546      5.9655546      0              0              0              0.23589263   
    149000   0.10754788     0.23354546    -4.7258596     -5.0439699     -0.10161892    -0.055810298   -0.018445253   -0.23060121     0.019663489    0.02227936     0.058047238    26.469735      5.9655546      5.9655546      0              0              0              0.23354546   
    150000   0.10373198     0.23122165    -4.7307735     -4.5833005     -0.0015443397   0.083667132    0.054821103   -0.14312125    -0.045441452    0.030484519   -0.02207685     26.735761      5.9655546      5.9655546      0              0              0              0.23122165   
    151000   0.10279664     0.22892095    -4.7317181     -4.9429268     -0.075883691   -0.017835108   -0.010743714   -0.19907225    -0.011167086    0.0010148606   0.06993818     27.00446       5.9655546      5.9655546      0              0              0              0.22892095   
    152000   0.11052604     0.22664315    -4.7228365     -4.9884722     -0.088719632   -0.043129971   -0.015697306   -0.20733162    -0.023985444   -0.0093501332   0.086678011    27.275859      5.9655546      5.9655546      0              0              0              0.22664315   
    153000   0.093379397    0.22438801    -4.7179634     -5.6484869     -0.21824636    -0.15065294    -0.19504372    -0.30904241     0.028345637   -0.037063597    8.9404693e-05  27.549986      5.9655546      5.9655546      0              0              0              0.22438801   
    154000   0.10700268     0.22215532    -4.7301538     -5.0793767     -0.10278205    -0.003141342   -0.087296925   -0.21790789    -0.017951338    0.0098891541   0.0099789131   27.826868      5.9655546      5.9655546      0              0              0              0.22215532   
    155000   0.10988081     0.21994483    -4.7250372     -5.0122939     -0.090228114   -0.026082331   -0.055497722   -0.18910429    -0.023943342    0.00063498012  0.077921896    28.106532      5.9655546      5.9655546      0              0              0              0.21994483   
    156000   0.10479983     0.21775635    -4.7462352     -4.9035374     -0.062103296    0.015895833   -0.03755896    -0.16464676    -0.07291518     0.019075521    0.078506602    28.389008      5.9655546      5.9655546      0              0              0              0.21775635   
    157000   0.10292181     0.21558963    -4.7223031     -4.6930929     -0.024381351    0.089505469   -0.00032754325 -0.16232198    -0.019008447    0.011695405    0.049612461    28.674322      5.9655546      5.9655546      0              0              0              0.21558963   
    158000   0.095874448    0.21344448    -4.7453566     -4.8367734     -0.045504314    0.010917238    0.00051440117 -0.14794458     0.0012763679  -0.006807593    0.049018323    28.962504      5.9655546      5.9655546      0              0              0              0.21344448   
    159000   0.096512026    0.21132067    -4.7259592     -5.0496673     -0.089859755    0.00098228581 -0.025234485   -0.24532707    -0.041680484    0.0068684625   0.040274667    29.253582      5.9655546      5.9655546      0              0              0              0.21132067   
    160000   0.10959718     0.209218      -4.7222177     -4.959547      -0.076251035   -0.01720137    -0.016055075   -0.19549666    -0.062499921    0.0082297563  -0.0078884158   29.547585      5.9655546      5.9655546      0              0              0              0.209218     
    161000   0.10897857     0.20713624    -4.7367401     -5.0613742     -0.091758468   -0.015417717   -0.054827867   -0.20502982    -0.064726939   -0.012078794    0.045363737    29.844543      5.9655546      5.9655546      0              0              0              0.20713624   
    162000   0.095200761    0.2050752     -4.7327776     -5.128627      -0.10028857    -0.065004663   -0.077068217   -0.15879284     0.042262305   -0.017746656    0.016872819    30.144486      5.9655546      5.9655546      0              0              0              0.2050752    
    163000   0.099530846    0.20303467    -4.708362      -5.0235084     -0.085587623   -0.041582852   -0.056660777   -0.15851924    -0.0021802257   0.0078507628   0.0040256045   30.447443      5.9655546      5.9655546      0              0              0              0.20303467   
    164000   0.094570696    0.20101444    -4.7245183     -5.0781133     -0.090409305    0.0013859149  -0.071806386   -0.20080744     0.038593958    0.0053501314   0.026707228    30.753445      5.9655546      5.9655546      0              0              0              0.20101444   
    165000   0.10028855     0.19901432    -4.7144452     -4.9132746     -0.063053163   -0.058413876   -0.033565085   -0.097180528    0.02774902    -0.029928846    0.06994093     31.062522      5.9655546      5.9655546      0              0              0              0.19901432   
    166000   0.094784068    0.19703409    -4.7332475     -5.044243      -0.081045622    0.015799941   -0.040202094   -0.21873471    -0.032586673   -0.0025672638   0.025788851    31.374706      5.9655546      5.9655546      0              0              0              0.19703409   
    167000   0.10520969     0.19507357    -4.7380055     -5.0331486     -0.080187401   -0.018740357   -0.048936329   -0.17288552     0.01178695     0.026130879    0.012846975    31.690027      5.9655546      5.9655546      0              0              0              0.19507357   
    168000   0.097802336    0.19313255    -4.7219527     -4.7441465     -0.029525365   -0.0073175357   0.056019649   -0.13727821     0.0052168448   0.011474587   -0.013176578    32.008517      5.9655546      5.9655546      0              0              0              0.19313255   
    169000   0.096413484    0.19121085    -4.7385254     -4.9290496     -0.058131816   -0.061209871    0.0052114195  -0.118397      -0.018909225   -0.027057738    0.037950979    32.330208      5.9655546      5.9655546      0              0              0              0.19121085   
    170000   0.098071647    0.18930827    -4.7239646     -4.7428332     -0.028437639    0.03501354    -0.0031987498  -0.11712771     0.036855976    0.038858062    0.0297878      32.655132      5.9655546      5.9655546      0              0              0              0.18930827   
    171000   0.10431432     0.18742462    -4.710223      -4.7845346     -0.039188921    0.028815998   -0.0010294583  -0.1453533     -0.011053075   -0.030002007    0.025346673    32.983321      5.9655546      5.9655546      0              0              0              0.18742462   
    172000   0.096125355    0.18555972    -4.7266813     -4.8124792     -0.038674852    0.0014921434  -0.011446404   -0.10607029     0.026403355   -0.045209617    0.060748295    33.314809      5.9655546      5.9655546      0              0              0              0.18555972   
    173000   0.095516681    0.18371337    -4.7241892     -4.9222634     -0.056889822    0.013273922   -0.045274763   -0.13866862    -0.017764892    0.018795336    0.022430078    33.649629      5.9655546      5.9655546      0              0              0              0.18371337   
    174000   0.10827937     0.18188539    -4.720282      -5.0108453     -0.074766523   -0.013437269   -0.048114199   -0.1627481     -0.0068101186  -0.027977454    0.0028669119   33.987813      5.9655546      5.9655546      0              0              0              0.18188539   
    175000   0.09980591     0.1800756     -4.7292382     -4.9277024     -0.056875171    0.018207929   -0.066217477   -0.12261596    -0.013976199   -0.01140007     0.022054091    34.329396      5.9655546      5.9655546      0              0              0              0.1800756    
    176000   0.10522837     0.17828382    -4.7164571     -4.7640302     -0.033165064    0.031481406   -0.013534937   -0.11744166     0.0049772462  -0.013900626    0.044694622    34.674412      5.9655546      5.9655546      0              0              0              0.17828382   
    177000   0.097441743    0.17650986    -4.7177308     -5.2553259     -0.1096009     -0.083361208   -0.026365989   -0.2190755      0.012338162    0.018469755    0.05119653     35.022896      5.9655546      5.9655546      0              0              0              0.17650986   
    178000   0.096000404    0.17475356    -4.7342532     -5.0430397     -0.071818482   -0.00072373853 -0.037924232   -0.17680748    -0.042290614   -0.0042069986  -0.023786889    35.374882      5.9655546      5.9655546      0              0              0              0.17475356   
    179000   0.092107685    0.17301473    -4.7095258     -5.0417424     -0.073875306   -0.012914402   -0.05857447    -0.15013705     0.001207457   -0.0055692623   0.033395742    35.730406      5.9655546      5.9655546      0              0              0              0.17301473   
    180000   0.10383656     0.17129321    -4.7294943     -4.7491331     -0.027191215    0.043855795    0.0077421422  -0.13317158    -0.018116403    0.029804038    0.0067359281   36.089502      5.9655546      5.9655546      0              0              0              0.17129321   
    181000   0.086434354    0.16958881    -4.7250772     -4.9394931     -0.052945497   -0.049969434    0.04344502    -0.15231208    -0.019080542   -0.0020645808  -0.0088632963   36.452208      5.9655546      5.9655546      0              0              0              0.16958881   
    182000   0.10442277     0.16790138    -4.7254829     -4.8478845     -0.042471806    0.011159484    0.01714056    -0.15571546     0.0032721259   0.0064216064   0.032209997    36.818558      5.9655546      5.9655546      0              0              0              0.16790138   
    183000   0.087488443    0.16623073    -4.7431301     -5.2052501     -0.089567607   -0.031686629   -0.058883568   -0.17813262     0.027873137    0.0031233512   0.030947879    37.188591      5.9655546      5.9655546      0              0              0              0.16623073   
    184000   0.10562427     0.16457671    -4.730082      -4.6928329     -0.018012944    0.00047722846  0.015002616   -0.069518676    0.011227576    0.018954453    0.051115327    37.562343      5.9655546      5.9655546      0              0              0              0.16457671   
    185000   0.098576248    0.16293914    -4.7283291     -4.6890956     -0.015981596    0.036211059    0.016404699   -0.10056055     0.0031617926   0.0022140072   0.0067097257   37.93985       5.9655546      5.9655546      0              0              0              0.16293914   
    186000   0.10055685     0.16131787    -4.7383867     -4.8624751     -0.040207671    0.035670582   -0.056674547   -0.099619048   -0.032021404    0.010778066    0.032026223    38.321152      5.9655546      5.9655546      0              0              0              0.16131787   
    187000   0.10198674     0.15971273    -4.7285692     -4.9647723     -0.056395765   -0.030282055    0.014723118   -0.15362836     0.017133809   -0.014855803   -0.0021612395   38.706286      5.9655546      5.9655546      0              0              0              0.15971273   
    188000   0.093725119    0.15812356    -4.7482294     -5.1594738     -0.07922409    -0.036468746   -0.035513799   -0.16568972    -0.046061792    0.027843586    0.01524077     39.095291      5.9655546      5.9655546      0              0              0              0.15812356   
    189000   0.10608021     0.15655021    -4.7265296     -4.9650558     -0.05647917     0.0056891801   0.00081436401 -0.17594105     0.014416745   -0.0014912602   0.071160529    39.488205      5.9655546      5.9655546      0              0              0              0.15655021   
    190000   0.092981898    0.1549925     -4.7253439     -4.9075655     -0.045229225   -0.013458077   -0.001097759   -0.12113184    -0.022388026   -0.025162726    0.006796778    39.885068      5.9655546      5.9655546      0              0              0              0.1549925    
    191000   0.10817354     0.1534503     -4.7334061     -4.7745394     -0.028260292    0.028506421    0.0092597499  -0.12254705    -0.034403244   -0.027151983    0.068509112    40.28592       5.9655546      5.9655546      0              0              0              0.1534503    
    192000   0.10255609     0.15192345    -4.7290846     -4.9889696     -0.057033445    0.017809397   -0.035524948   -0.15338478    -0.03603019    -0.011561399   -0.0039000285   40.6908        5.9655546      5.9655546      0              0              0              0.15192345   
    193000   0.098170476    0.15041178    -4.7345331     -5.1845193     -0.081564985   -0.032014723   -0.07062363    -0.1420566     -0.010769228   -0.014834079    0.025252016    41.099749      5.9655546      5.9655546      0              0              0              0.15041178   
    194000   0.095730758    0.14891516    -4.7182836     -5.2004108     -0.084611611   -0.047241101   -0.061965759   -0.14462797     0.00797191    -0.023813255    0.0024101633   41.512809      5.9655546      5.9655546      0              0              0              0.14891516   
    195000   0.10109007     0.14743343    -4.7189322     -5.170566      -0.080754756   -0.023113101   -0.065137318   -0.15401385     0.0098485906   0.017930683    0.024033448    41.930019      5.9655546      5.9655546      0              0              0              0.14743343   
    196000   0.097341514    0.14596644    -4.7279802     -4.8563568     -0.036313647    0.016278691    0.019839582   -0.14505921     0.0188198     -0.019469441   -0.005618672    42.351423      5.9655546      5.9655546      0              0              0              0.14596644   
    197000   0.098050774    0.14451405    -4.7220576     -5.1127962     -0.07055956    -0.021474046   -0.038976778   -0.15122786    -0.011807307    0.013175712    0.026982154    42.777062      5.9655546      5.9655546      0              0              0              0.14451405   
    198000   0.10463097     0.14307611    -4.7203976     -4.7004489     -0.017717107    0.020580568    0.027202224   -0.10093411     0.041628461   -0.012268824    0.018635086    43.206979      5.9655546      5.9655546      0              0              0              0.14307611   
    199000   0.094714942    0.14165248    -4.7367934     -4.7531962     -0.020316168    0.057127455   -0.0079910759  -0.11008488     0.0045115839   0.0063901664   0.028380581    43.641216      5.9655546      5.9655546      0              0              0              0.14165248   
    200000   0.099846705    0.14024302    -4.7251953     -4.7015065     -0.015979089    0.01376615     0.011507808   -0.073211225    0.0012030408   0.0038065676   0.024742853    44.079817      5.9655546      5.9655546      0              0              0              0.14024302   
Loop time of 24.2604 on 12 procs for 200000 steps with 200 atoms

Performance: 1424544.107 tau/day, 8243.890 timesteps/s
98.2% CPU use with 12 MPI tasks x 1 OpenMP threads

MPI task timing breakdown:
Section |  min time  |  avg time  |  max time  |%varavg| %total
---------------------------------------------------------------
Pair    | 0.53132    | 0.99556    | 1.4678     |  28.5 |  4.10
Bond    | 0.028746   | 0.059201   | 0.078907   |   5.1 |  0.24
Neigh   | 0.028441   | 0.028998   | 0.029569   |   0.2 |  0.12
Comm    | 5.5143     | 5.8062     | 6.2133     |  10.2 | 23.93
Output  | 0.021548   | 0.021675   | 0.02282    |   0.2 |  0.09
Modify  | 16.565     | 16.78      | 16.941     |   2.7 | 69.17
Other   |            | 0.5689     |            |       |  2.34

Nlocal:        16.6667 ave          24 max           7 min
Histogram: 1 1 1 1 0 3 0 2 0 3
Nghost:        463.833 ave         510 max         420 min
Histogram: 1 1 1 2 1 1 2 2 0 1
Neighs:          951.5 ave        1530 max         444 min
Histogram: 2 1 1 1 1 1 1 2 1 1

Total # of neighbors = 11418
Ave neighs/atom = 57.09
Ave special neighs/atom = 9.83
Neighbor list builds = 372
Dangerous builds = 0
System init for write_data ...
Generated 0 of 1 mixed pair_coeff terms from geometric mixing rule
WARNING: Not all mixed pair coeffs generated from mixing. Use write_data with 'pair ij' option to store all pair coeffs. (src/write_data.cpp:309)
Total wall time: 0:00:24
