ITEM: TIMESTEP
0
ITEM: NUMBER OF ATOMS
200
ITEM: BOX BOUNDS pp pp pp
9.7017222714120251e+01 1.0298277728587975e+02
9.7017222714120251e+01 1.0298277728587975e+02
9.7017222714120251e+01 1.0298277728587975e+02
ITEM: ATOMS id mol type x y z
1 1 1 100.616 102.018 97.6255
2 1 1 99.5473 101.522 97.5031
3 2 1 101.853 101.553 98.8827
4 2 1 97.0319 101.785 98.6964
5 3 1 101.767 99.1472 97.1866
6 3 1 101.404 99.4826 98.2643
7 4 1 99.9787 98.7942 101.489
8 4 1 99.6554 97.8849 100.794
9 5 1 102.335 97.81 100.689
10 5 1 101.482 98.6209 100.471
11 6 1 97.4917 98.4992 99.9719
12 6 1 97.6826 98.3428 98.8473
13 7 1 97.8216 99.8872 102.306
14 7 1 102.675 99.6465 102.71
15 8 1 102.368 99.8056 98.9862
16 8 1 101.5 100.483 98.5851
17 9 1 101.939 99.5306 100.913
18 9 1 102.646 98.7007 101.387
19 10 1 97.1345 99.1754 98.3961
20 10 1 97.2861 99.433 99.4863
21 11 1 101.307 101.328 98.0011
22 11 1 102.418 100.892 98.2288
23 12 1 99.5849 98.2866 99.8019
24 12 1 100.348 98.8623 100.49
25 13 1 100.482 97.1685 97.9817
26 13 1 101.522 102.535 98.0965
27 14 1 99.198 97.5179 99.2092
28 14 1 99.4282 102.478 99.8478
29 15 1 99.0425 102.551 98.797
30 15 1 98.0847 97.3295 98.9806
31 16 1 100.442 101.999 99.7805
32 16 1 100.89 101.115 99.1397
33 17 1 100.807 101.203 101.382
34 17 1 99.9386 101.726 100.788
35 18 1 99.1325 102.821 100.917
36 18 1 98.553 97.1227 99.9548
37 19 1 99.3709 97.3775 98.1293
38 19 1 99.0366 97.3552 102.954
39 20 1 101.912 97.8641 99.6874
40 20 1 101.17 97.3001 98.8781
41 21 1 101.663 100.545 99.6818
42 21 1 100.643 101.039 100.178
43 22 1 101.591 99.3194 99.6315
44 22 1 102.511 98.6649 99.1959
45 23 1 98.8366 100.175 101.985
46 23 1 100.018 99.8013 101.987
47 24 1 100.965 102.081 100.756
48 24 1 101.382 102.279 101.826
49 25 1 97.9266 101.136 98.8697
50 25 1 99.0048 100.63 98.9939
51 26 1 99.3054 101.999 101.614
52 26 1 98.8329 101.805 100.525
53 27 1 101.036 99.0158 101.361
54 27 1 100.985 99.7151 100.418
55 28 1 98.059 102.165 98.4742
56 28 1 97.5446 101.282 97.8378
57 29 1 102.868 101.908 100.746
58 29 1 97.4784 101.476 99.7821
59 30 1 99.1116 99.2988 99.4868
60 30 1 100.268 98.9962 99.4209
61 31 1 99.9443 99.806 100.108
62 31 1 99.3891 99.89 101.139
63 32 1 98.3751 100.547 98.1217
64 32 1 98.1116 100.091 99.2311
65 33 1 100.227 97.5657 102.821
66 33 1 99.7608 102.602 97.3289
67 34 1 97.3459 99.338 100.663
68 34 1 102.479 99.9299 100.089
69 35 1 102.889 100.609 102.171
70 35 1 102.894 100.591 97.3473
71 36 1 98.2912 99.1874 98.767
72 36 1 98.6079 98.0783 98.4243
73 37 1 102.104 101.534 102.257
74 37 1 97.1964 101.672 101.745
75 38 1 99.8163 97.8477 101.859
76 38 1 100.876 98.3683 102.213
77 39 1 97.8644 102.338 100.449
78 39 1 97.4374 102.503 99.3709
79 40 1 101.709 97.1861 101.299
80 40 1 101.053 97.1231 100.356
81 41 1 101.926 97.3584 102.389
82 41 1 102.034 98.0711 97.3704
83 42 1 100.503 98.9416 98.4051
84 42 1 100.501 100.169 98.2881
85 43 1 97.6175 99.8004 97.4274
86 43 1 98.6943 100.331 97.0992
87 44 1 102.135 98.7685 98.1638
88 44 1 101.324 98.4748 98.9928
89 45 1 98.2454 99.909 101.156
90 45 1 97.2606 100.572 101.119
91 46 1 99.8673 101.695 102.495
92 46 1 100.464 100.971 97.3249
93 47 1 102.955 102.948 100.911
94 47 1 97.4217 98.0916 100.949
95 48 1 102.682 97.6251 101.658
96 48 1 102.177 98.4448 102.384
97 49 1 102.484 101.904 99.684
98 49 1 101.528 102.555 99.5755
99 50 1 98.8708 100.066 100.244
100 50 1 98.8658 100.911 101.106
101 51 1 100.064 97.3105 99.9541
102 51 1 100.302 97.9466 98.929
103 52 1 98.7334 99.5816 97.8669
104 52 1 99.3321 99.5552 102.792
105 53 1 97.6178 102.25 97.4759
106 53 1 98.0915 97.3023 97.9137
107 54 1 100.325 100.368 101.033
108 54 1 100.595 100.628 102.249
109 55 1 97.971 101.949 102.435
110 55 1 97.8088 100.837 102.779
111 56 1 102.409 97.1037 97.6685
112 56 1 102.311 102.582 98.8128
113 57 1 97.9998 102.978 102.766
114 57 1 102.968 97.6615 102.722
115 58 1 98.3834 98.1846 100.481
116 58 1 98.2218 99.2776 99.9909
117 59 1 98.8491 98.2204 102.4
118 59 1 98.6882 97.1226 101.939
119 60 1 98.2955 99.1012 102.764
120 60 1 98.9972 98.4009 97.4674
121 61 1 97.5718 100.324 100.12
122 61 1 102.735 100.791 99.3385
123 62 1 100.396 102.099 101.733
124 62 1 100.843 97.2488 101.92
125 63 1 100.745 98.885 97.3639
126 63 1 99.6661 99.1582 97.7621
127 64 1 99.5494 101.588 99.289
128 64 1 100.206 101.203 98.3444
129 65 1 99.0556 99.1289 101.831
130 65 1 98.8253 98.0301 101.369
131 66 1 97.0282 97.5938 99.0604
132 66 1 102.526 102.943 99.8857
133 67 1 101.537 101.604 100.013
134 67 1 101.444 100.627 100.718
135 68 1 102.412 102.427 101.715
136 68 1 101.967 102.457 100.586
137 69 1 97.2666 98.7864 102.279
138 69 1 97.9494 98.0424 102.982
139 70 1 101.692 102.205 97.079
140 70 1 100.614 102.487 102.652
141 71 1 97.8685 101.351 100.762
142 71 1 98.4603 100.967 99.8535
143 72 1 100.014 98.1342 97.745
144 72 1 99.4564 98.5916 98.7312
145 73 1 100.323 99.8587 97.2719
146 73 1 99.6638 100.625 102.722
147 74 1 101.968 101.11 97.2648
148 74 1 102.98 101.552 102.823
149 75 1 98.7815 102.429 97.7837
150 75 1 98.9881 102.275 102.6
151 76 1 98.924 101.463 98.3918
152 76 1 98.4614 101.499 97.3237
153 77 1 97.1089 97.964 97.9651
154 77 1 97.2538 102.792 98.3167
155 78 1 102.982 99.6556 101.647
156 78 1 102.187 100.466 101.401
157 79 1 101.694 98.233 101.492
158 79 1 101.962 99.3592 101.949
159 80 1 98.2665 102.085 101.453
160 80 1 98.1056 97.2351 101.018
161 81 2 98.5445 98.2825 99.4682
162 82 2 101.053 101.469 102.548
163 83 2 102.484 98.8598 100.222
164 84 2 100.174 102.932 101.115
165 85 2 100.728 97.8943 101.093
166 86 2 100.085 102.819 99.0043
167 87 2 100.747 98.0616 99.9367
168 88 2 97.8802 97.8392 101.939
169 89 2 101.153 100.063 101.576
170 90 2 98.8637 101.216 102.243
171 91 2 97.5421 97.4529 99.9874
172 92 2 99.6824 99.751 98.7198
173 93 2 99.75 100.903 101.677
174 94 2 102.417 99.8205 97.8317
175 95 2 100.776 99.8975 99.2439
176 96 2 102.939 98.786 97.3022
177 97 2 101.325 100.276 97.5132
178 98 2 97.977 98.8357 97.8241
179 99 2 99.1383 98.9732 100.708
180 100 2 98.3811 101.99 99.5733
181 101 2 101.815 101.528 101.164
182 102 2 97.3132 100.256 98.3715
183 103 2 102.506 100.961 100.402
184 104 2 99.5603 100.403 97.8449
185 105 2 102.784 102.592 102.739
186 106 2 99.5735 100.907 100.238
187 107 2 102.051 97.7303 98.4675
188 108 2 99.9924 100.591 99.3122
189 109 2 100.8 102.082 98.7858
190 110 2 99.9337 98.5798 102.7
191 111 2 98.0398 98.9374 101.574
192 112 2 99.855 102.163 98.2782
193 113 2 101.137 98.0527 98.0614
194 114 2 99.7656 102.822 102.153
195 115 2 102.513 101.995 97.8063
196 116 2 101.28 97.247 97.3075
197 117 2 98.0075 100.915 101.748
198 118 2 97.4119 102.793 101.887
199 119 2 100.979 99.4877 102.44
200 120 2 101.766 100.414 102.429
ITEM: TIMESTEP
1000
ITEM: NUMBER OF ATOMS
200
ITEM: BOX BOUNDS pp pp pp
9.6987245304022295e+01 1.0301275469597770e+02
9.7017222714120251e+01 1.0298277728587975e+02
9.7017222714120251e+01 1.0298277728587975e+02
ITEM: ATOMS id mol type x y z
1 1 1 100.602 101.964 97.6007
2 1 1 99.4109 101.516 97.5186
3 2 1 101.854 101.61 98.9245
4 2 1 96.9936 101.763 98.7564
5 3 1 101.825 99.2403 97.1732
6 3 1 101.407 99.4802 98.2606
7 4 1 99.9895 98.8349 101.478
8 4 1 99.7127 97.9042 100.76
9 5 1 102.277 97.7596 100.637
10 5 1 101.458 98.5699 100.387
11 6 1 97.443 98.4984 99.8723
12 6 1 97.6548 98.2818 98.7334
13 7 1 97.8368 99.9087 102.329
14 7 1 102.702 99.7743 102.693
15 8 1 102.434 99.7572 98.9869
16 8 1 101.62 100.462 98.5806
17 9 1 101.894 99.4427 100.863
18 9 1 102.668 98.6773 101.397
19 10 1 97.181 99.1811 98.3589
20 10 1 97.2492 99.4628 99.4914
21 11 1 101.309 101.287 98.0443
22 11 1 102.48 100.877 98.221
23 12 1 99.5194 98.3252 99.7766
24 12 1 100.365 98.8354 100.443
25 13 1 100.487 97.1019 98.0393
26 13 1 101.488 102.482 98.0707
27 14 1 99.1937 97.4936 99.2597
28 14 1 99.4452 102.452 99.9107
29 15 1 98.968 102.518 98.8179
30 15 1 98.0472 97.2873 98.9846
31 16 1 100.463 101.961 99.816
32 16 1 100.947 101.063 99.1546
33 17 1 100.893 101.2 101.444
34 17 1 100.022 101.682 100.805
35 18 1 99.1802 102.912 100.975
36 18 1 98.5197 97.1282 99.9901
37 19 1 99.3953 97.3193 98.1828
38 19 1 99.0441 97.3878 103.02
39 20 1 101.833 97.8626 99.6052
40 20 1 101.186 97.2311 98.8506
41 21 1 101.661 100.496 99.7255
42 21 1 100.692 101.014 100.22
43 22 1 101.7 99.3419 99.6374
44 22 1 102.596 98.6523 99.1533
45 23 1 98.8593 100.216 102.024
46 23 1 99.9984 99.7535 102
47 24 1 101.031 102.083 100.78
48 24 1 101.427 102.282 101.873
49 25 1 97.9122 101.165 98.94
50 25 1 99.0094 100.66 99.0558
51 26 1 99.3204 101.987 101.609
52 26 1 98.8259 101.848 100.546
53 27 1 100.977 99.0253 101.327
54 27 1 100.986 99.7472 100.367
55 28 1 97.9686 102.166 98.514
56 28 1 97.5218 101.256 97.8875
57 29 1 102.92 101.924 100.741
58 29 1 97.42 101.441 99.8546
59 30 1 99.0922 99.3299 99.4419
60 30 1 100.206 99.0177 99.3882
61 31 1 99.9056 99.7326 100.12
62 31 1 99.3535 99.9059 101.169
63 32 1 98.3368 100.57 98.1994
64 32 1 98.1625 100.061 99.2848
65 33 1 100.174 97.5848 102.829
66 33 1 99.7421 102.559 97.3132
67 34 1 97.3229 99.352 100.677
68 34 1 102.525 99.9563 100.112
69 35 1 102.91 100.686 102.161
70 35 1 102.934 100.583 97.3585
71 36 1 98.3021 99.1612 98.699
72 36 1 98.6098 98.0265 98.367
73 37 1 102.095 101.539 102.279
74 37 1 97.0936 101.647 101.711
75 38 1 99.8966 97.8413 101.821
76 38 1 100.939 98.2724 102.289
77 39 1 97.848 102.396 100.486
78 39 1 97.3971 102.527 99.373
79 40 1 101.694 97.2186 101.353
80 40 1 101.14 97.2085 100.313
81 41 1 101.935 97.3144 102.458
82 41 1 102.015 98.1637 97.3865
83 42 1 100.499 98.9502 98.4182
84 42 1 100.575 100.229 98.2527
85 43 1 97.6332 99.7502 97.5258
86 43 1 98.6045 100.371 97.1618
87 44 1 102.178 98.8329 98.1914
88 44 1 101.333 98.572 98.9825
89 45 1 98.212 99.9241 101.179
90 45 1 97.2104 100.536 101.094
91 46 1 99.839 101.676 102.566
92 46 1 100.431 100.959 97.3357
93 47 1 102.969 102.954 100.88
94 47 1 97.352 98.0834 100.88
95 48 1 102.715 97.6421 101.693
96 48 1 102.226 98.4926 102.371
97 49 1 102.541 101.913 99.7295
98 49 1 101.511 102.489 99.5878
99 50 1 98.8893 100.036 100.226
100 50 1 98.8143 100.872 101.084
101 51 1 100.075 97.3 99.9885
102 51 1 100.221 97.8635 98.8734
103 52 1 98.7117 99.5255 97.7925
104 52 1 99.307 99.606 102.752
105 53 1 97.588 102.245 97.5013
106 53 1 97.9728 97.3534 97.8171
107 54 1 100.353 100.381 101.049
108 54 1 100.582 100.59 102.274
109 55 1 97.8392 101.967 102.453
110 55 1 97.7651 100.832 102.773
111 56 1 102.355 97.0986 97.6283
112 56 1 102.309 102.645 98.769
113 57 1 98.027 102.938 102.766
114 57 1 103.036 97.6992 102.723
115 58 1 98.3766 98.1511 100.439
116 58 1 98.2063 99.2617 100.032
117 59 1 98.9131 98.1924 102.348
118 59 1 98.6437 97.1322 101.932
119 60 1 98.3195 99.042 102.694
120 60 1 99.0038 98.4213 97.4557
121 61 1 97.4894 100.401 100.074
122 61 1 102.66 100.812 99.3126
123 62 1 100.397 102.079 101.724
124 62 1 100.829 97.2701 101.966
125 63 1 100.772 98.8143 97.315
126 63 1 99.7187 99.1757 97.765
127 64 1 99.5286 101.564 99.2986
128 64 1 100.132 101.206 98.3429
129 65 1 99.0198 99.1042 101.778
130 65 1 98.8717 98.0235 101.352
131 66 1 96.9848 97.5788 99.0607
132 66 1 102.49 102.964 99.8421
133 67 1 101.63 101.532 100.066
134 67 1 101.461 100.59 100.785
135 68 1 102.459 102.45 101.743
136 68 1 102.012 102.44 100.652
137 69 1 97.3015 98.7915 102.277
138 69 1 98.0213 98.021 102.9
139 70 1 101.744 102.288 97.0352
140 70 1 100.628 102.469 102.673
141 71 1 97.8463 101.36 100.813
142 71 1 98.4587 100.963 99.8859
143 72 1 100.007 98.1439 97.7408
144 72 1 99.4166 98.5828 98.7457
145 73 1 100.389 99.8911 97.2373
146 73 1 99.6144 100.647 102.752
147 74 1 101.963 101.172 97.2648
148 74 1 103.027 101.549 102.859
149 75 1 98.7348 102.521 97.7449
150 75 1 98.9137 102.341 102.589
151 76 1 98.8349 101.571 98.4133
152 76 1 98.3902 101.531 97.3223
153 77 1 97.0116 97.9938 97.9252
154 77 1 97.1661 102.874 98.3013
155 78 1 103.114 99.6333 101.661
156 78 1 102.194 100.374 101.467
157 79 1 101.69 98.2936 101.444
158 79 1 102.021 99.3971 101.884
159 80 1 98.2583 102.135 101.46
160 80 1 98.1242 97.2771 101.025
161 81 2 98.5207 98.2782 99.4021
162 82 2 101.013 101.478 102.572
163 83 2 102.541 98.8432 100.208
164 84 2 100.255 102.936 101.088
165 85 2 100.765 97.9445 101.135
166 86 2 100.067 102.782 99.0708
167 87 2 100.689 98.0607 99.8201
168 88 2 97.88 97.8458 101.897
169 89 2 101.154 100.009 101.569
170 90 2 98.7844 101.226 102.304
171 91 2 97.5056 97.471 99.9766
172 92 2 99.7015 99.7472 98.667
173 93 2 99.7301 100.915 101.689
174 94 2 102.495 99.7724 97.832
175 95 2 100.832 99.8346 99.2317
176 96 2 102.979 98.8346 97.2703
177 97 2 101.429 100.256 97.5049
178 98 2 97.9426 98.7833 97.7617
179 99 2 99.1693 98.9551 100.603
180 100 2 98.3362 101.972 99.6266
181 101 2 101.923 101.536 101.219
182 102 2 97.2869 100.255 98.4916
183 103 2 102.525 100.965 100.441
184 104 2 99.5427 100.414 97.858
185 105 2 102.877 102.595 102.727
186 106 2 99.5738 100.919 100.228
187 107 2 102.1 97.7788 98.4162
188 108 2 100.068 100.564 99.322
189 109 2 100.736 102.051 98.7726
190 110 2 99.9403 98.6052 102.685
191 111 2 98.0078 98.8666 101.486
192 112 2 99.7766 102.183 98.2768
193 113 2 101.125 98.029 98.1059
194 114 2 99.7585 102.809 102.158
195 115 2 102.523 102.007 97.8709
196 116 2 101.253 97.2845 97.311
197 117 2 97.9788 100.919 101.767
198 118 2 97.4481 102.87 101.879
199 119 2 101.054 99.3994 102.389
200 120 2 101.757 100.438 102.424
ITEM: TIMESTEP
2000
ITEM: NUMBER OF ATOMS
200
ITEM: BOX BOUNDS pp pp pp
9.6956966615944111e+01 1.0304303338405589e+02
9.7017222714120251e+01 1.0298277728587975e+02
9.7017222714120251e+01 1.0298277728587975e+02
ITEM: ATOMS id mol type x y z
1 1 1 100.649 102.009 97.5897
2 1 1 99.5067 101.497 97.4936
3 2 1 101.9 101.658 98.8483
4 2 1 96.999 101.656 98.7367
5 3 1 101.847 99.2168 97.2142
6 3 1 101.461 99.5038 98.3198
7 4 1 100.102 98.8426 101.587
8 4 1 99.7513 97.9525 100.852
9 5 1 102.306 97.8331 100.665
10 5 1 101.482 98.6329 100.353
11 6 1 97.4238 98.4758 99.8626
12 6 1 97.5987 98.299 98.7882
13 7 1 97.7636 99.9214 102.477
14 7 1 102.665 99.7945 102.691
15 8 1 102.434 99.7511 98.9992
16 8 1 101.592 100.482 98.6497
17 9 1 101.922 99.5218 100.819
18 9 1 102.71 98.8107 101.381
19 10 1 97.1719 99.1791 98.3994
20 10 1 97.2651 99.4881 99.5064
21 11 1 101.327 101.259 98.0122
22 11 1 102.434 100.88 98.2179
23 12 1 99.6001 98.3031 99.8238
24 12 1 100.362 98.8506 100.522
25 13 1 100.506 97.0801 98.0815
26 13 1 101.551 102.448 98.1609
27 14 1 99.2205 97.4736 99.2534
28 14 1 99.4179 102.41 99.9312
29 15 1 98.9875 102.498 98.8668
30 15 1 98.0315 97.2528 98.9613
31 16 1 100.484 102.006 99.8562
32 16 1 100.932 101.063 99.1992
33 17 1 100.882 101.213 101.377
34 17 1 99.9321 101.739 100.798
35 18 1 99.0803 102.794 100.991
36 18 1 98.5355 97.1076 99.9912
37 19 1 99.3854 97.3019 98.207
38 19 1 99.0322 97.3578 102.983
39 20 1 101.904 97.8667 99.6095
40 20 1 101.197 97.2748 98.8645
41 21 1 101.683 100.478 99.709
42 21 1 100.659 100.95 100.228
43 22 1 101.652 99.3547 99.6388
44 22 1 102.551 98.6543 99.1815
45 23 1 98.7877 100.166 102.007
46 23 1 99.9675 99.7973 101.959
47 24 1 101.014 102.098 100.807
48 24 1 101.451 102.345 101.901
49 25 1 97.9442 101.132 98.8934
50 25 1 99.0295 100.662 99.0751
51 26 1 99.2486 102.024 101.671
52 26 1 98.8221 101.78 100.583
53 27 1 101.083 99.0442 101.278
54 27 1 100.948 99.7959 100.359
55 28 1 97.9641 102.157 98.5066
56 28 1 97.4918 101.278 97.8709
57 29 1 102.919 101.939 100.718
58 29 1 97.4056 101.447 99.7892
59 30 1 99.1298 99.2233 99.4951
60 30 1 100.287 98.938 99.3817
61 31 1 99.8957 99.7144 100.09
62 31 1 99.3153 99.935 101.111
63 32 1 98.3261 100.556 98.1055
64 32 1 98.1222 100.114 99.2281
65 33 1 100.31 97.5869 102.852
66 33 1 99.7746 102.58 97.3237
67 34 1 97.3553 99.3109 100.702
68 34 1 102.572 99.9337 100.122
69 35 1 102.887 100.752 102.142
70 35 1 102.958 100.58 97.3473
71 36 1 98.2999 99.1754 98.7842
72 36 1 98.586 98.0558 98.3941
73 37 1 102.184 101.545 102.241
74 37 1 97.1607 101.689 101.703
75 38 1 99.8502 97.8308 101.887
76 38 1 100.934 98.3225 102.188
77 39 1 97.7744 102.341 100.442
78 39 1 97.286 102.517 99.3961
79 40 1 101.771 97.2371 101.342
80 40 1 101.156 97.1228 100.373
81 41 1 101.921 97.3887 102.426
82 41 1 102.164 98.0633 97.3714
83 42 1 100.521 98.959 98.3849
84 42 1 100.583 100.191 98.2722
85 43 1 97.6292 99.8261 97.5557
86 43 1 98.6199 100.289 97.0984
87 44 1 102.212 98.7805 98.1789
88 44 1 101.359 98.5893 98.981
89 45 1 98.1426 99.9593 100.99
90 45 1 97.0999 100.518 101.067
91 46 1 99.8662 101.638 102.507
92 46 1 100.481 100.929 97.3095
93 47 1 103.052 102.961 100.937
94 47 1 97.2966 98.1325 100.872
95 48 1 102.695 97.6889 101.665
96 48 1 102.296 98.5332 102.427
97 49 1 102.52 101.95 99.657
98 49 1 101.509 102.473 99.5733
99 50 1 98.8741 100.07 100.138
100 50 1 98.7976 100.857 101.066
101 51 1 100.009 97.3359 99.9856
102 51 1 100.233 97.8969 98.9025
103 52 1 98.7036 99.5273 97.8802
104 52 1 99.2879 99.5001 102.785
105 53 1 97.5248 102.252 97.4906
106 53 1 97.9808 97.3801 97.8035
107 54 1 100.295 100.35 101.042
108 54 1 100.534 100.616 102.222
109 55 1 97.8957 102.003 102.441
110 55 1 97.778 100.892 102.841
111 56 1 102.43 97.0844 97.6709
112 56 1 102.366 102.653 98.8434
113 57 1 97.934 102.984 102.74
114 57 1 103.04 97.7158 102.71
115 58 1 98.3102 98.1842 100.482
116 58 1 98.1827 99.263 99.9677
117 59 1 98.9136 98.2196 102.342
118 59 1 98.6344 97.117 101.934
119 60 1 98.3116 99.0478 102.641
120 60 1 99.0093 98.4009 97.4103
121 61 1 97.4871 100.37 100.089
122 61 1 102.709 100.747 99.3403
123 62 1 100.408 102.093 101.721
124 62 1 100.842 97.2876 101.917
125 63 1 100.801 98.8618 97.356
126 63 1 99.7038 99.1281 97.7439
127 64 1 99.6337 101.566 99.2975
128 64 1 100.153 101.205 98.2964
129 65 1 99.0512 99.0968 101.769
130 65 1 98.8167 98.0236 101.339
131 66 1 96.9327 97.5672 99.0712
132 66 1 102.489 102.992 99.9703
133 67 1 101.548 101.549 100.037
134 67 1 101.494 100.607 100.745
135 68 1 102.508 102.461 101.687
136 68 1 101.983 102.418 100.636
137 69 1 97.263 98.7884 102.282
138 69 1 97.9895 98.0277 102.891
139 70 1 101.761 102.293 97.0652
140 70 1 100.656 102.524 102.668
141 71 1 97.7079 101.344 100.807
142 71 1 98.4071 100.95 99.9042
143 72 1 100.016 98.1308 97.7662
144 72 1 99.4448 98.554 98.7069
145 73 1 100.352 99.8757 97.2258
146 73 1 99.5992 100.575 102.721
147 74 1 102.025 101.141 97.2502
148 74 1 103.08 101.562 102.842
149 75 1 98.758 102.491 97.8199
150 75 1 98.9576 102.283 102.659
151 76 1 98.8563 101.533 98.4246
152 76 1 98.4154 101.602 97.3499
153 77 1 97.0406 98.0096 97.8307
154 77 1 97.1822 102.882 98.2978
155 78 1 103.187 99.7016 101.715
156 78 1 102.211 100.329 101.426
157 79 1 101.808 98.2643 101.516
158 79 1 101.978 99.4171 101.905
159 80 1 98.2037 102.079 101.43
160 80 1 98.034 97.2401 101.022
161 81 2 98.5303 98.2164 99.4472
162 82 2 101.026 101.472 102.559
163 83 2 102.574 98.8759 100.224
164 84 2 100.142 102.905 101.074
165 85 2 100.824 97.9718 101.047
166 86 2 100.121 102.805 99.0672
167 87 2 100.767 97.982 99.8588
168 88 2 97.7962 97.8436 101.855
169 89 2 101.125 100.055 101.547
170 90 2 98.7376 101.181 102.321
171 91 2 97.4943 97.4304 99.98
172 92 2 99.6914 99.7361 98.6696
173 93 2 99.6651 100.927 101.677
174 94 2 102.517 99.7911 97.8414
175 95 2 100.794 99.8293 99.2682
176 96 2 102.993 98.9335 97.2854
177 97 2 101.399 100.284 97.5253
178 98 2 97.9313 98.825 97.7556
179 99 2 99.1421 98.9711 100.608
180 100 2 98.3256 101.966 99.6406
181 101 2 101.992 101.47 101.202
182 102 2 97.2303 100.276 98.4354
183 103 2 102.554 100.998 100.339
184 104 2 99.4999 100.41 97.857
185 105 2 102.828 102.621 102.712
186 106 2 99.5856 100.891 100.202
187 107 2 102.091 97.7721 98.4816
188 108 2 100.045 100.534 99.2753
189 109 2 100.766 102.014 98.7805
190 110 2 99.9698 98.5632 102.659
191 111 2 98.0056 98.8945 101.474
192 112 2 99.8008 102.187 98.2652
193 113 2 101.13 98.0511 98.0992
194 114 2 99.7451 102.83 102.157
195 115 2 102.574 101.995 97.824
196 116 2 101.303 97.2886 97.409
197 117 2 97.9198 100.833 101.761
198 118 2 97.3843 102.82 101.9
199 119 2 101.06 99.4448 102.433
200 120 2 101.708 100.47 102.442
ITEM: TIMESTEP
3000
ITEM: NUMBER OF ATOMS
200
ITEM: BOX BOUNDS pp pp pp
9.6926383621991647e+01 1.0307361637800835e+02
9.7017222714120251e+01 1.0298277728587975e+02
9.7017222714120251e+01 1.0298277728587975e+02
ITEM: ATOMS id mol type x y z
1 1 1 100.567 101.921 97.582
2 1 1 99.4432 101.503 97.5253
3 2 1 101.892 101.497 98.8961
4 2 1 96.9053 101.734 98.7515
5 3 1 101.899 99.2741 97.1461
6 3 1 101.472 99.4391 98.3088
7 4 1 99.9863 98.8136 101.565
8 4 1 99.6741 97.8974 100.83
9 5 1 102.319 97.7598 100.64
10 5 1 101.487 98.5967 100.43
11 6 1 97.3599 98.4835 99.877
12 6 1 97.6747 98.286 98.7551
13 7 1 97.8119 99.9103 102.328
14 7 1 102.794 99.7338 102.642
15 8 1 102.491 99.7457 98.9907
16 8 1 101.618 100.472 98.6247
17 9 1 101.957 99.4795 100.891
18 9 1 102.742 98.7098 101.389
19 10 1 97.1431 99.1808 98.4316
20 10 1 97.2053 99.5118 99.5652
21 11 1 101.357 101.316 97.9772
22 11 1 102.471 100.925 98.2298
23 12 1 99.571 98.3269 99.8607
24 12 1 100.379 98.8272 100.559
25 13 1 100.491 97.0941 97.9392
26 13 1 101.521 102.398 98.077
27 14 1 99.1662 97.5507 99.2442
28 14 1 99.3721 102.489 99.8569
29 15 1 98.9978 102.502 98.8772
30 15 1 98.0715 97.2888 98.9291
31 16 1 100.479 101.948 99.8306
32 16 1 100.942 101.062 99.1802
33 17 1 100.909 101.226 101.372
34 17 1 99.9435 101.718 100.808
35 18 1 99.0901 102.872 100.944
36 18 1 98.424 97.1502 99.9689
37 19 1 99.4646 97.329 98.1908
38 19 1 99.0081 97.3902 102.988
39 20 1 101.892 97.8109 99.605
40 20 1 101.167 97.2714 98.8101
41 21 1 101.733 100.509 99.7111
42 21 1 100.668 100.875 100.21
43 22 1 101.727 99.3847 99.6921
44 22 1 102.565 98.6255 99.2259
45 23 1 98.8167 100.181 102.037
46 23 1 99.9871 99.8212 102.036
47 24 1 100.959 102.092 100.762
48 24 1 101.468 102.296 101.847
49 25 1 97.9011 101.153 98.8911
50 25 1 98.9888 100.653 99.0377
51 26 1 99.2832 102.03 101.612
52 26 1 98.8636 101.826 100.513
53 27 1 101.052 98.9941 101.386
54 27 1 100.937 99.6953 100.432
55 28 1 97.9046 102.201 98.5137
56 28 1 97.472 101.234 97.878
57 29 1 102.985 101.883 100.748
58 29 1 97.3868 101.445 99.7914
59 30 1 99.0735 99.3348 99.4965
60 30 1 100.236 99.0241 99.4265
61 31 1 99.9201 99.7228 100.171
62 31 1 99.3165 99.9438 101.16
63 32 1 98.3385 100.499 98.1829
64 32 1 98.1379 100.076 99.2892
65 33 1 100.258 97.5853 102.869
66 33 1 99.7431 102.56 97.366
67 34 1 97.3175 99.2477 100.69
68 34 1 102.61 99.9372 100.185
69 35 1 102.96 100.688 102.144
70 35 1 102.97 100.569 97.3461
71 36 1 98.3131 99.2068 98.7447
72 36 1 98.6098 98.0517 98.3356
73 37 1 102.169 101.463 102.155
74 37 1 97.0995 101.686 101.739
75 38 1 99.8686 97.8069 101.85
76 38 1 100.918 98.2557 102.28
77 39 1 97.7652 102.353 100.455
78 39 1 97.3052 102.573 99.3656
79 40 1 101.753 97.2038 101.326
80 40 1 101.124 97.1385 100.327
81 41 1 101.992 97.4516 102.383
82 41 1 102.091 98.1455 97.3924
83 42 1 100.523 98.9122 98.4205
84 42 1 100.58 100.119 98.2857
85 43 1 97.5526 99.8179 97.4201
86 43 1 98.6 100.376 97.129
87 44 1 102.32 98.8269 98.2504
88 44 1 101.416 98.5238 98.9693
89 45 1 98.1445 99.8884 101.034
90 45 1 97.1124 100.531 101.091
91 46 1 99.8572 101.689 102.544
92 46 1 100.469 100.888 97.2806
93 47 1 103.043 102.923 100.852
94 47 1 97.2545 98.116 100.878
95 48 1 102.746 97.6039 101.681
96 48 1 102.396 98.5079 102.41
97 49 1 102.545 101.939 99.6644
98 49 1 101.516 102.496 99.5359
99 50 1 98.8454 100.061 100.237
100 50 1 98.7835 100.892 101.058
101 51 1 100.014 97.366 99.9696
102 51 1 100.298 97.8809 98.9052
103 52 1 98.6713 99.5221 97.8181
104 52 1 99.3138 99.5955 102.796
105 53 1 97.5625 102.234 97.4832
106 53 1 97.9999 97.3833 97.7502
107 54 1 100.263 100.384 101.056
108 54 1 100.586 100.646 102.223
109 55 1 97.8184 101.987 102.444
110 55 1 97.7098 100.847 102.782
111 56 1 102.45 97.131 97.6424
112 56 1 102.333 102.628 98.7682
113 57 1 97.961 102.985 102.695
114 57 1 103.143 97.7186 102.71
115 58 1 98.278 98.1981 100.459
116 58 1 98.1704 99.2711 100.05
117 59 1 98.9643 98.225 102.366
118 59 1 98.63 97.1436 101.898
119 60 1 98.3497 99.0862 102.66
120 60 1 99.0116 98.4204 97.4194
121 61 1 97.4931 100.426 100.079
122 61 1 102.765 100.808 99.3217
123 62 1 100.396 102.083 101.754
124 62 1 100.86 97.2094 101.936
125 63 1 100.853 98.9079 97.3905
126 63 1 99.6952 99.1587 97.7925
127 64 1 99.6245 101.535 99.2897
128 64 1 100.189 101.143 98.2905
129 65 1 98.9769 99.1366 101.796
130 65 1 98.7782 98.0634 101.355
131 66 1 96.9537 97.6133 99.0443
132 66 1 102.559 102.97 99.8819
133 67 1 101.548 101.509 100
134 67 1 101.529 100.578 100.749
135 68 1 102.51 102.45 101.689
136 68 1 101.97 102.418 100.587
137 69 1 97.2873 98.838 102.331
138 69 1 98.0341 98.0525 102.9
139 70 1 101.825 102.271 96.9788
140 70 1 100.651 102.489 102.703
141 71 1 97.7681 101.357 100.805
142 71 1 98.4147 100.969 99.9063
143 72 1 100.004 98.135 97.8072
144 72 1 99.4567 98.5448 98.7703
145 73 1 100.277 99.8372 97.2961
146 73 1 99.5766 100.629 102.738
147 74 1 102.053 101.162 97.2214
148 74 1 103.066 101.587 102.783
149 75 1 98.7478 102.453 97.7775
150 75 1 98.8995 102.334 102.586
151 76 1 98.8304 101.517 98.4414
152 76 1 98.399 101.526 97.34
153 77 1 96.9291 98.0585 97.976
154 77 1 97.1494 102.887 98.2799
155 78 1 103.173 99.6495 101.65
156 78 1 102.212 100.373 101.493
157 79 1 101.786 98.2503 101.531
158 79 1 101.96 99.3343 101.93
159 80 1 98.2181 102.134 101.408
160 80 1 98.0289 97.2855 101.004
161 81 2 98.489 98.3337 99.4401
162 82 2 101.063 101.516 102.617
163 83 2 102.588 98.854 100.251
164 84 2 100.188 102.903 101.078
165 85 2 100.771 97.9581 101.144
166 86 2 100.116 102.793 99.0919
167 87 2 100.768 98.0597 99.8771
168 88 2 97.7678 97.8744 101.856
169 89 2 101.15 100.053 101.57
170 90 2 98.7488 101.24 102.232
171 91 2 97.4314 97.4683 100.001
172 92 2 99.6657 99.7223 98.7383
173 93 2 99.675 100.958 101.707
174 94 2 102.555 99.7571 97.8207
175 95 2 100.836 99.8852 99.2634
176 96 2 103.021 98.8881 97.3316
177 97 2 101.382 100.24 97.5209
178 98 2 97.8761 98.8308 97.7575
179 99 2 99.1932 98.9601 100.65
180 100 2 98.2846 101.976 99.5843
181 101 2 101.925 101.504 101.132
182 102 2 97.2442 100.234 98.464
183 103 2 102.567 100.982 100.381
184 104 2 99.4939 100.371 97.8871
185 105 2 102.883 102.641 102.662
186 106 2 99.5791 100.888 100.212
187 107 2 102.106 97.7982 98.5035
188 108 2 100.011 100.548 99.2749
189 109 2 100.795 101.991 98.772
190 110 2 99.9942 98.6437 102.721
191 111 2 97.947 98.9131 101.489
192 112 2 99.8054 102.144 98.321
193 113 2 101.153 97.992 98.0365
194 114 2 99.7568 102.813 102.19
195 115 2 102.595 102.036 97.7686
196 116 2 101.344 97.2395 97.294
197 117 2 97.9143 100.882 101.709
198 118 2 97.3724 102.85 101.837
199 119 2 101.028 99.473 102.464
200 120 2 101.768 100.383 102.474
ITEM: TIMESTEP
4000
ITEM: NUMBER OF ATOMS
200
ITEM: BOX BOUNDS pp pp pp
9.6895493263840024e+01 1.0310450673615998e+02
9.7017222714120251e+01 1.0298277728587975e+02
9.7017222714120251e+01 1.0298277728587975e+02
ITEM: ATOMS id mol type x y z
1 1 1 100.586 101.892 97.5743
2 1 1 99.4618 101.456 97.5314
3 2 1 101.911 101.588 98.906
4 2 1 96.913 101.741 98.7699
5 3 1 101.86 99.1342 97.1563
6 3 1 101.461 99.3894 98.2778
7 4 1 99.9989 98.8286 101.519
8 4 1 99.6953 97.9429 100.829
9 5 1 102.441 97.7918 100.701
10 5 1 101.592 98.5818 100.404
11 6 1 97.3339 98.5016 99.9002
12 6 1 97.6237 98.2794 98.7605
13 7 1 97.6554 99.8875 102.461
14 7 1 102.682 99.7999 102.672
15 8 1 102.499 99.737 99.0072
16 8 1 101.642 100.386 98.5261
17 9 1 101.959 99.5051 100.886
18 9 1 102.753 98.6869 101.361
19 10 1 97.0754 99.2288 98.4342
20 10 1 97.1928 99.5268 99.5657
21 11 1 101.288 101.215 98.0104
22 11 1 102.476 100.93 98.2401
23 12 1 99.5548 98.2848 99.8008
24 12 1 100.332 98.8341 100.509
25 13 1 100.547 97.0632 98.0335
26 13 1 101.558 102.394 98.0625
27 14 1 99.2285 97.521 99.1648
28 14 1 99.3941 102.481 99.8483
29 15 1 98.9946 102.524 98.8426
30 15 1 98.0443 97.2726 98.9315
31 16 1 100.517 101.918 99.7772
32 16 1 100.983 101.021 99.097
33 17 1 100.926 101.199 101.416
34 17 1 100.018 101.636 100.8
35 18 1 99.1282 102.879 100.976
36 18 1 98.5425 97.1724 99.9705
37 19 1 99.487 97.3068 98.1749
38 19 1 99.0913 97.3984 103.048
39 20 1 101.923 97.8027 99.6876
40 20 1 101.222 97.2824 98.8568
41 21 1 101.745 100.504 99.6158
42 21 1 100.697 100.892 100.15
43 22 1 101.726 99.3719 99.6853
44 22 1 102.577 98.6628 99.1832
45 23 1 98.7582 100.186 102.056
46 23 1 99.941 99.86 101.976
47 24 1 101.009 102.056 100.773
48 24 1 101.515 102.295 101.863
49 25 1 97.9047 101.208 98.9597
50 25 1 98.9753 100.628 99.0904
51 26 1 99.2222 101.999 101.66
52 26 1 98.8627 101.828 100.533
53 27 1 101.063 98.9803 101.266
54 27 1 100.959 99.7614 100.415
55 28 1 97.9433 102.21 98.4928
56 28 1 97.5018 101.277 97.9272
57 29 1 102.963 101.93 100.715
58 29 1 97.3473 101.468 99.7952
59 30 1 99.0172 99.2886 99.5233
60 30 1 100.215 99.0513 99.4511
61 31 1 99.8563 99.7544 100.166
62 31 1 99.264 99.9591 101.143
63 32 1 98.3979 100.577 98.194
64 32 1 98.0647 100.139 99.2937
65 33 1 100.329 97.5545 102.871
66 33 1 99.76 102.569 97.3004
67 34 1 97.2075 99.3627 100.711
68 34 1 102.555 99.9484 100.104
69 35 1 102.981 100.67 102.186
70 35 1 103.028 100.601 97.3857
71 36 1 98.2134 99.1995 98.7547
72 36 1 98.5992 98.101 98.3047
73 37 1 102.165 101.506 102.214
74 37 1 96.9909 101.606 101.694
75 38 1 99.9532 97.8483 101.873
76 38 1 100.947 98.2709 102.255
77 39 1 97.7768 102.354 100.459
78 39 1 97.3329 102.522 99.3914
79 40 1 101.735 97.2557 101.294
80 40 1 101.136 97.1652 100.291
81 41 1 101.971 97.3618 102.376
82 41 1 102.186 98.0916 97.379
83 42 1 100.521 98.9284 98.4413
84 42 1 100.594 100.117 98.1999
85 43 1 97.5241 99.8882 97.5501
86 43 1 98.5483 100.395 97.1329
87 44 1 102.254 98.7634 98.1518
88 44 1 101.436 98.5749 98.991
89 45 1 98.1726 99.9314 101.045
90 45 1 97.0568 100.436 101.109
91 46 1 99.9284 101.664 102.564
92 46 1 100.493 100.858 97.3113
93 47 1 103.183 102.954 100.916
94 47 1 97.2908 98.1144 100.889
95 48 1 102.802 97.6454 101.718
96 48 1 102.392 98.47 102.382
97 49 1 102.589 101.933 99.7071
98 49 1 101.544 102.472 99.5409