LAMMPS (23 Jun 2022)
OMP_NUM_THREADS environment is not set. Defaulting to 1 thread. (src/comm.cpp:98)
  using 1 OpenMP thread(s) per MPI task
Reading data file ...
  orthogonal box = (96.906278 96.906278 96.906278) to (103.09372 103.09372 103.09372)
  2 by 2 by 3 MPI processor grid
  reading atoms ...
  200 atoms
  scanning bonds ...
  4 = max bonds/atom
  reading bonds ...
  224 bonds
Finding 1-2 1-3 1-4 neighbors ...
  special bond factors lj:    0        0        0       
  special bond factors coul:  0        0        0       
     4 = max # of 1-2 neighbors
     4 = max # of 1-3 neighbors
    10 = max # of 1-4 neighbors
    12 = max # of special neighbors
  special bonds CPU = 0.001 seconds
  read_data CPU = 0.006 seconds
Finding 1-2 1-3 1-4 neighbors ...
  special bond factors lj:    0        1        1       
  special bond factors coul:  0        0        0       
     4 = max # of 1-2 neighbors
     4 = max # of 1-3 neighbors
    10 = max # of 1-4 neighbors
    12 = max # of special neighbors
  special bonds CPU = 0.000 seconds
Generated 0 of 1 mixed pair_coeff terms from geometric mixing rule
Neighbor list info ...
  update every 1 steps, delay 0 steps, check yes
  max neighbors/atom: 2000, page size: 100000
  master list distance cutoff = 5.5
  ghost atom cutoff = 5.5
  binsize = 2.75, bins = 3 3 3
  1 neighbor lists, perpetual/occasional/extra = 1 0 0
  (1) pair lj/cut, perpetual
      attributes: half, newton on
      pair build: half/bin/newton
      stencil: half/bin/3d
      bin: standard
WARNING: Proc sub-domain size < neighbor skin, could lead to lost atoms (src/domain.cpp:970)
Setting up Verlet run ...
  Unit style    : lj
  Current step  : 0
  Time step     : 0.002
WARNING: Inconsistent image flags (src/domain.cpp:819)
Per MPI rank memory allocation (min/avg/max) = 8.431 | 8.435 | 8.44 Mbytes
   Step          Temp         Density         PotEng        Enthalpy        Press           Pxx            Pyy            Pzz            Pxy            Pxz            Pyz             Lx             Ly             Lz             Xy             Yz             Xz          Density    
         0   1.5            0.92872907    -4.0718923      0.73583132     2.1689823      1.8617353      2.0584809      2.5867306      1.1253157      0.74916379    -0.06604851     6.187443       6.187443       6.187443       0              0              0              0.92872907   
      1000   1.4870849      0.7895788     -2.9461604     -0.15171046     0.41271691     1.4500605      0.081632881   -0.29354269     0.25624066    -0.63107583    -0.50480337     6.5314419      6.5314419      6.5314419      0              0              0              0.7895788    
      2000   1.4606194      0.7681171     -2.7582567      0.46252566     0.72678397     1.0197661      0.35998085     0.80060496    -0.57985744     0.20159342    -0.42071773     6.5917149      6.5917149      6.5917149      0              0              0              0.7681171    
      3000   1.5518498      0.79607365    -2.7157808      1.1408664      1.1148732      0.94923874     1.0489551      1.3464257     -0.082333049   -0.49543032     0.076700079    6.5136309      6.5136309      6.5136309      0              0              0              0.79607365   
      4000   1.5883107      0.79632822    -2.8268698      1.6492345      1.5242813      0.27487776     2.2941936      2.0037724      0.17831076     0.5202557      0.43693271     6.5129367      6.5129367      6.5129367      0              0              0              0.79632822   
      5000   1.5416852      0.81365799    -2.9653003      0.24670763     0.67388838     0.027414089    0.89714583     1.0971052     -0.25596544    -0.90624024     0.32926518     6.4663657      6.4663657      6.4663657      0              0              0              0.81365799   
      6000   1.3751004      0.78559767    -2.856341      -0.44457191     0.25669888     0.5607768     -0.47566244     0.6849823      0.30510322    -0.44367051     1.1443109      6.5424563      6.5424563      6.5424563      0              0              0              0.78559767   
      7000   1.3412565      0.81360907    -2.9308452      0.10733587     0.76653491     0.91806805     1.1219606      0.25957609    -0.29896094     0.033331106    0.80462326     6.4664953      6.4664953      6.4664953      0              0              0              0.81360907   
      8000   1.5106778      0.79201389    -2.8395807      0.51432568     0.79145213     0.93050263     0.93738502     0.50646875    -0.084631291    0.11103514    -0.39746011     6.5247413      6.5247413      6.5247413      0              0              0              0.79201389   
      9000   1.4074804      0.8076995     -2.902663       1.7884741      1.9021122      2.2953041      1.9608741      1.4501585      0.33900162     0.29142649     0.85046504     6.4822278      6.4822278      6.4822278      0              0              0              0.8076995    
     10000   1.4539488      0.8395075     -2.9948577      2.2673174      2.3598988      1.7462348      1.9269144      3.4065472     -0.15204761    -0.70054688    -0.062415334    6.3993034      6.3993034      6.3993034      0              0              0              0.8395075    
     11000   1.3109186      0.79732157    -2.9882966      0.076633043    0.80339832     0.60308379     1.2030099      0.60410128    -0.24662666     0.10633576    -0.18752721     6.5102309      6.5102309      6.5102309      0              0              0              0.79732157   
     12000   1.5502747      0.79700499    -3.0552658      0.73890611     1.0726143      0.44252955     0.9957524      1.779561      -0.035491938   -0.11499975    -0.25888542     6.5110927      6.5110927      6.5110927      0              0              0              0.79700499   
     13000   1.4981746      0.82000615    -3.054734       1.4150579      1.6651837      1.5221555      2.0397816      1.4336141     -0.080481141   -0.24806302     0.20911979     6.4496358      6.4496358      6.4496358      0              0              0              0.82000615   
     14000   1.2919877      0.80465201    -2.8853366      0.20943314     0.85328084     0.85559428     0.82298241     0.88126583     0.1243135     -0.16206554     0.21492868     6.490401       6.490401       6.490401       0              0              0              0.80465201   
     15000   1.3168597      0.8165876     -3.173058       0.28970777     1.1115633      1.4795425      0.69847196     1.1566753      0.33392959    -0.74395173    -0.14761393     6.4586235      6.4586235      6.4586235      0              0              0              0.8165876    
     16000   1.4756285      0.828702      -2.9311863      1.4031275      1.6061286      2.538887       1.0388188      1.2406801     -0.5585131      0.34830432     0.47099166     6.426997       6.426997       6.426997       0              0              0              0.828702     
     17000   1.4066296      0.81964124    -3.1470749      0.33423029     1.0297007      1.4191004      0.90380168     0.76620008     0.11568653    -0.20701938    -0.031735753    6.4505928      6.4505928      6.4505928      0              0              0              0.81964124   
     18000   1.3046015      0.81057594    -3.177416      -0.90675651     0.23841378    -0.36317857     0.18417348     0.89424642     0.59779499     0.22809471     0.46622161     6.474551       6.474551       6.474551       0              0              0              0.81057594   
     19000   1.396905       0.83098542    -3.375666      -1.0967882      0.14655345     0.23813811     0.30999208    -0.10846983     0.091540812   -1.1524802     -0.018706318    6.4211048      6.4211048      6.4211048      0              0              0              0.83098542   
     20000   1.3704496      0.81071679    -3.0646149      0.51037638     1.127335       1.5353348      0.73529957     1.1113706     -0.099283089   -0.19477539     0.49053189     6.474176       6.474176       6.474176       0              0              0              0.81071679   
     21000   1.3264384      0.82525674    -3.2919423     -0.42449608     0.66600982     0.89968441     0.1155807      0.98276437    -0.26413337     0.022469066   -0.023308765    6.4359284      6.4359284      6.4359284      0              0              0              0.82525674   
     22000   1.1912879      0.85220909    -3.3436743     -0.13376112     1.1093563      0.97555092     1.3637984      0.98871953    -0.011886386    0.38805838     0.22956161     6.3673517      6.3673517      6.3673517      0              0              0              0.85220909   
     23000   1.2708858      0.82627356    -3.3055965     -0.45415815     0.71708624     0.85834532     0.72725976     0.56565365     0.42485696     0.3505921     -0.34595771     6.4332872      6.4332872      6.4332872      0              0              0              0.82627356   
     24000   1.2616587      0.83158737    -3.2471632      0.70541984     1.5645616      0.16366555     2.3440199      2.1859994      0.5591522      0.67785915    -0.62736043     6.4195551      6.4195551      6.4195551      0              0              0              0.83158737   
     25000   1.3319309      0.83609052    -3.218702       0.62244482     1.4086148      1.3228827      1.6312331      1.2717287     -0.34377246    -0.3510951     -0.045991408    6.4080092      6.4080092      6.4080092      0              0              0              0.83609052   
     26000   1.2406209      0.84064761    -3.34027       -0.42400705     0.81362178     0.62206883     1.2923711      0.52642546     0.26419441    -0.84946686     0.064000629    6.3964091      6.3964091      6.3964091      0              0              0              0.84064761   
     27000   1.2289196      0.83752146    -3.3029344     -0.12761993     1.0211305      0.71483299     1.1188099      1.2297487     -0.59939953    -0.043560843   -0.36486313     6.4043577      6.4043577      6.4043577      0              0              0              0.83752146   
     28000   1.3294869      0.84269986    -3.2812809     -0.22682491     0.81986794     0.81690682     0.92215595     0.72054104    -0.17063476    -0.13066903     0.24219878     6.3912124      6.3912124      6.3912124      0              0              0              0.84269986   
     29000   1.0923613      0.8371495     -3.2242414     -0.91083722     0.51983558     0.92173952     0.28833126     0.34943596    -0.46117604    -0.4527191     -0.84459771     6.4053061      6.4053061      6.4053061      0              0              0              0.8371495    
     30000   1.2220078      0.83431673    -3.3561302     -0.52255321     0.76584998     1.8567197      0.13769338     0.30313689     0.43676687    -0.42094627    -0.54116154     6.4125472      6.4125472      6.4125472      0              0              0              0.83431673   
     31000   1.1519362      0.86628908    -3.6329117     -1.2556532      0.51819344     1.0535322      0.042854939    0.45819317    -0.29468856     0.00039247498 -0.30101439     6.3326664      6.3326664      6.3326664      0              0              0              0.86628908   
     32000   1.1614847      0.86543695    -3.4387402      0.28758795     1.5678667      1.8102845      1.4604582      1.4328573     -0.33759616    -0.0050665673  -0.37654662     6.3347442      6.3347442      6.3347442      0              0              0              0.86543695   
     33000   1.2561684      0.85511184    -3.5188562     -1.2324563      0.31994285     0.69222749    -0.1292927      0.39689374     0.3884788     -0.2604841      0.37124406     6.3601387      6.3601387      6.3601387      0              0              0              0.85511184   
     34000   1.1271956      0.86040254    -3.681567      -0.59315862     1.0998048      0.75468241     0.54479651     1.9999355      0.73987929    -0.100739      -0.36562625     6.3470755      6.3470755      6.3470755      0              0              0              0.86040254   
     35000   1.0796711      0.84001222    -3.4551564     -1.6512817      0.14697583     0.29636679     0.21051836    -0.065957655   -0.28788083    -0.50942876    -0.091329399    6.3980215      6.3980215      6.3980215      0              0              0              0.84001222   
     36000   1.1513559      0.84601509    -3.4046895     -0.23349867     1.1173491      1.1692474      1.4626865      0.72011353    -0.010493708    0.33564896    -0.15156606     6.3828532      6.3828532      6.3828532      0              0              0              0.84601509   
     37000   1.0167892      0.86928526    -3.5618992     -0.94607877     0.86791226     0.53338653     1.1610999      0.90925037    -0.3400547      0.24198587    -0.48692522     6.3253824      6.3253824      6.3253824      0              0              0              0.86928526   
     38000   1.0655494      0.86702809    -3.4962453     -0.74596145     0.91428222     1.1079573      1.2314502      0.40343909     0.51236868    -0.072521585    0.32510367     6.3308667      6.3308667      6.3308667      0              0              0              0.86702809   
     39000   1.2078865      0.87138101    -3.5557428     -0.31126265     1.1420712      1.0279144      0.80296398     1.5953352      0.055800389   -0.27368394    -0.47597481     6.3203073      6.3203073      6.3203073      0              0              0              0.87138101   
     40000   1.1518853      0.87675896    -3.5435725      0.63959908     1.9639264      2.5058963      1.7659349      1.619948      -0.34807166     0.72605774     0.18195522     6.3073581      6.3073581      6.3073581      0              0              0              0.87675896   
     41000   1.0136063      0.85298708    -3.4751965     -1.2483005      0.55373486     0.77960309     0.4092378      0.47236369    -0.57026653    -0.24483923     0.29098817     6.3654153      6.3654153      6.3654153      0              0              0              0.85298708   
     42000   1.0862439      0.90540197    -3.775448      -0.4005314      1.4434557      1.3042293      1.3257436      1.7003942     -0.51053504     0.20871351     0.54738578     6.2401316      6.2401316      6.2401316      0              0              0              0.90540197   
     43000   1.160773       0.86141237    -3.6105376     -0.94408085     0.73141984     0.85699462     0.21907836     1.1181865      0.12174555     0.20018155     0.11409025     6.3445943      6.3445943      6.3445943      0              0              0              0.86141237   
     44000   1.1128793      0.86065157    -3.6183604     -0.62056291     1.045946       0.85645064     1.6318858      0.64950171     0.3403967     -0.24769595     0.097423863    6.3464633      6.3464633      6.3464633      0              0              0              0.86065157   
     45000   1.0387186      0.84191728    -3.6130016     -1.547607       0.39425238     0.76989078    -0.16641649     0.57928284    -0.086700525   -0.043484673    0.42322982     6.3931921      6.3931921      6.3931921      0              0              0              0.84191728   
     46000   0.98057142     0.89008443    -3.715202      -0.79721465     1.1769219      1.0315114      1.235102       1.2641522     -0.5227291      0.87930052     0.9429646      6.2757238      6.2757238      6.2757238      0              0              0              0.89008443   
     47000   1.1768475      0.87657062    -3.7478049     -0.49005496     1.1963636      0.8530987      1.3089816      1.4270106     -0.61749104    -0.45897363    -0.45554828     6.3078098      6.3078098      6.3078098      0              0              0              0.87657062   
     48000   1.0488088      0.88011752    -3.7662517     -0.26137384     1.5518319      1.9445096      0.60679133     2.1041946     -0.38267769     0.096320837   -0.022565746    6.2993248      6.2993248      6.2993248      0              0              0              0.88011752   
     49000   0.97913775     0.90172919    -3.8821152     -1.1254886      1.0617972      1.0505567      1.8197397      0.31509526     0.05616439    -0.50914356     0.059049465    6.2485922      6.2485922      6.2485922      0              0              0              0.90172919   
     50000   0.91498592     0.89584791    -3.9450507     -1.0820519      1.2194789      1.0033593      1.1331737      1.5219035      0.23471877     0.74161314    -0.22803797     6.2622365      6.2622365      6.2622365      0              0              0              0.89584791   
     51000   1.0606262      0.88219288    -3.7975995     -0.45384178     1.4121287      1.4701503      1.1925192      1.5737165      0.34650579     0.19557069    -0.2282932      6.2943812      6.2943812      6.2943812      0              0              0              0.88219288   
     52000   1.0368811      0.88028258    -3.805653      -1.2327184      0.82057502     0.5496539      1.3840783      0.5279928      0.28465315     0.4976984      0.15363732     6.2989311      6.2989311      6.2989311      0              0              0              0.88028258   
     53000   0.98086002     0.89828331    -4.0103935     -2.1878117      0.2928798      0.098650929    0.72350168     0.056486781   -0.081331171    0.026339628   -0.066762795    6.256572       6.256572       6.256572       0              0              0              0.89828331   
     54000   1.0962946      0.9141983     -3.958247      -0.97857679     1.1165274      0.61082358     1.2529299      1.4858287      0.66638966     0.36992133     0.035754623    6.2200531      6.2200531      6.2200531      0              0              0              0.9141983    
     55000   1.0233979      0.86635943    -3.8065746     -1.7194779      0.44079994     0.67932108     0.40466766     0.23841109    -0.12951414    -0.69921382     0.42363223     6.332495       6.332495       6.332495       0              0              0              0.86635943   
     56000   0.9486895      0.91827577    -4.045661      -0.058471664    2.1464865      2.4151684      2.7926724      1.2316188     -1.0920977     -0.45850607     0.081095059    6.210833       6.210833       6.210833       0              0              0              0.91827577   
     57000   0.9559299      0.8816348     -3.818277      -1.0216528      1.0979549      1.8448681      0.41897798     1.0300188      0.0029873836   0.11349499     0.57340558     6.2957091      6.2957091      6.2957091      0              0              0              0.8816348    
     58000   0.8921601      0.90178642    -4.0299554     -2.0437336      0.53670464     0.60095965     0.6661513      0.34300297     0.37452579     0.18563726     0.36946326     6.24846        6.24846        6.24846        0              0              0              0.90178642   
     59000   0.85958436     0.89536824    -3.965116      -2.3051268      0.30691563     0.025741808    0.52250238     0.37250271     0.37902762     0.53368599     0.54672597     6.2633546      6.2633546      6.2633546      0              0              0              0.89536824   
     60000   0.92025397     0.90066979    -4.0111488     -1.8832575      0.61770571     0.68281724     0.26372912     0.90657076     0.054049947    0.26546595    -0.42480771     6.2510412      6.2510412      6.2510412      0              0              0              0.90066979   
     61000   0.89423486     0.90690968    -3.9868495     -1.3599422      1.0654225      0.90831648     1.7094967      0.57845426     0.30494291    -0.037083192    0.21933482     6.2366717      6.2366717      6.2366717      0              0              0              0.90690968   
     62000   0.83205381     0.91451405    -4.1036165     -0.96149047     1.5798528      1.6374401      1.7721137      1.3300045      0.82743433     0.10718055    -0.49957196     6.2193371      6.2193371      6.2193371      0              0              0              0.91451405   
     63000   0.8357364      0.90143461    -4.1054766     -2.8684027     -0.0084101414   0.75177132    -0.047420033   -0.72958171     0.66588616     0.073357016   -0.13581948     6.2492728      6.2492728      6.2492728      0              0              0              0.90143461   
     64000   0.87931127     0.91685917    -4.0414999     -1.0534598      1.3966833      1.2159673      1.4982593      1.4758233     -0.39913071     0.27981885    -0.55799647     6.21403        6.21403        6.21403        0              0              0              0.91685917   
     65000   0.92150375     0.90009295    -4.0639609     -1.4302957      1.0296416      0.52722842     1.4561366      1.1055596     -0.14060876    -0.1876533      0.16089036     6.2523763      6.2523763      6.2523763      0              0              0              0.90009295   
     66000   0.79605745     0.89545031    -3.9540466     -1.6245382      0.92914581     1.0678298      1.0135516      0.70605596    -0.043199075   -0.30602289     0.10706011     6.2631632      6.2631632      6.2631632      0              0              0              0.89545031   
     67000   0.79849764     0.93563287    -4.2272872     -1.8111863      1.0413962      1.2336108      0.79435796     1.0962197     -0.16102757    -0.22956122    -0.013684827    6.1721869      6.1721869      6.1721869      0              0              0              0.93563287   
     68000   0.77013751     0.91771154    -4.2968923     -2.1496276      0.83247652    -0.24255052     1.3287239      1.4112562     -0.2631166     -0.3180046     -0.7068931      6.2121056      6.2121056      6.2121056      0              0              0              0.91771154   
     69000   0.78830063     0.91521079    -4.2752295     -2.449891       0.5398078      0.70677643     0.16689782     0.74574915    -0.30719092     0.0054309405   0.19461889     6.2177585      6.2177585      6.2177585      0              0              0              0.91521079   
     70000   0.87904766     0.93922443    -4.2798523     -1.809807       0.98880409     1.1615597      0.3339255      1.4709271     -0.10022073    -0.13648358     0.29942899     6.1643095      6.1643095      6.1643095      0              0              0              0.93922443   
     71000   0.78271469     0.89858514    -4.0520881     -1.7813964      0.9006192      0.66989447     0.35997297     1.6719902      0.076060755   -0.74066243     0.35832093     6.2558715      6.2558715      6.2558715      0              0              0              0.89858514   
     72000   0.78155439     0.94100443    -4.2942674     -1.8587397      1.0856264      1.0542803      1.1023057      1.1002932     -0.21709165    -0.67651227     0.22400139     6.1604202      6.1604202      6.1604202      0              0              0              0.94100443   
     73000   0.79716504     0.9111617     -4.1909333     -2.7126593      0.23897715    -0.047323077   -0.1441275      0.90838203     0.038394033    0.0063330084   0.046504364    6.2269552      6.2269552      6.2269552      0              0              0              0.9111617    
     74000   0.78119852     0.9496338     -4.4108544     -1.7403497      1.298897       0.9445958      1.7437057      1.2083895     -0.1253046     -0.24602125    -0.19407077     6.1417034      6.1417034      6.1417034      0              0              0              0.9496338    
     75000   0.73654557     0.94806841    -4.4877784     -2.9536454      0.37477896     0.81757537    -0.20935186     0.51611337     0.26029823     0.33779283    -0.56235112     6.1450818      6.1450818      6.1450818      0              0              0              0.94806841   
     76000   0.70406265     0.9494414     -4.5697447     -3.0438961      0.41001632     0.49595604     0.37129824     0.36279468     0.025548938   -0.2152999      0.31278394     6.1421182      6.1421182      6.1421182      0              0              0              0.9494414    
     77000   0.762702       0.94846033    -4.4941825     -2.2338725      0.96740993     1.628186       0.34811726     0.9259265      0.90298588     0.44301109     0.50455821     6.1442353      6.1442353      6.1442353      0              0              0              0.94846033   
     78000   0.61792849     0.97752981    -4.6239946     -1.9769151      1.5327856      1.7184335      1.2627405      1.6171828     -0.6069698      0.34744762    -0.5933365      6.0827162      6.0827162      6.0827162      0              0              0              0.97752981   
     79000   0.69140763     0.94379866    -4.5640891     -3.1122277      0.36030417     1.0610583      0.16825998    -0.14840575    -0.38262885     0.22811375    -0.25202938     6.1543347      6.1543347      6.1543347      0              0              0              0.94379866   
     80000   0.70063258     0.95223855    -4.413149      -1.358902       1.7387468      1.9905833      1.3765746      1.8490824      0.28254433    -0.21955441     0.065716821    6.1360983      6.1360983      6.1360983      0              0              0              0.95223855   
     81000   0.78854787     0.96996552    -4.6520736     -1.7324327      1.5367192      1.3982549      1.4752273      1.7366755      0.29412616     0.28926835    -0.045782391    6.0984874      6.0984874      6.0984874      0              0              0              0.96996552   
     82000   0.69644387     0.94944539    -4.6193757     -2.4834776      0.9463861      0.78255769     0.80168972     1.2549109      0.53501667    -0.08879228    -0.19206877     6.1421096      6.1421096      6.1421096      0              0              0              0.94944539   
     83000   0.7058291      0.9508586     -4.6952962     -2.7139661      0.80207523     1.3683349      0.32365975     0.71423104    -0.01496082     0.39334442    -0.18654319     6.1390652      6.1390652      6.1390652      0              0              0              0.9508586    
     84000   0.72932774     0.96886692    -4.6445318     -1.7270822      1.610898       2.2830159      0.8098816      1.7397965      0.3384914     -0.24794726     0.43334339     6.1007915      6.1007915      6.1007915      0              0              0              0.96886692   
     85000   0.64294965     0.95327829    -4.6182911     -3.110147       0.47537544     0.39904533     0.25955656     0.76752444     0.42304771     0.19310111     0.019305637    6.1338666      6.1338666      6.1338666      0              0              0              0.95327829   
     86000   0.63074566     0.98013239    -4.7833129     -2.1796023      1.4811784      1.8584673      0.66851502     1.916553       0.073449023   -0.42601947    -0.39451192     6.0773276      6.0773276      6.0773276      0              0              0              0.98013239   
     87000   0.67270726     0.95408641    -4.7603891     -3.3763547      0.32960977     0.38466701     0.053824621    0.55033768    -0.44175065     0.10636124    -0.2189576      6.1321343      6.1321343      6.1321343      0              0              0              0.95408641   
     88000   0.61145232     0.99309313    -4.9441216     -2.5228642      1.3620406      1.8610659      0.85214127     1.3729147     -0.23395619    -0.016734967   -0.13648497     6.0507736      6.0507736      6.0507736      0              0              0              0.99309313   
     89000   0.65385555     0.9715968     -4.788999      -2.4984787      1.1611826      1.6204894      1.1011525      0.76190596     0.26781891     0.31988837    -0.30469108     6.0950724      6.0950724      6.0950724      0              0              0              0.9715968    
     90000   0.58746817     0.9850926     -4.831125      -2.5729927      1.23704        1.5837949      1.1449778      0.98234731    -0.55208671     0.5679634     -0.19865679     6.0671101      6.0671101      6.0671101      0              0              0              0.9850926    
     91000   0.65489504     0.96166201    -4.7495846     -3.3104409      0.40364704     0.23916474     0.28416795     0.68760844     0.028465927    0.079063363   -0.17851992     6.1159896      6.1159896      6.1159896      0              0              0              0.96166201   
     92000   0.53011861     0.98176984    -4.8105021     -2.4544897      1.3966215      1.9430185      0.72622228     1.5206237     -0.12570596    -0.27197331     0.36943471     6.073947       6.073947       6.073947       0              0              0              0.98176984   
     93000   0.59333709     0.98277531    -4.8988807     -2.649073       1.2188666      1.0173013      0.96342959     1.675869       0.004940708   -0.30832        0.55758626     6.0718749      6.0718749      6.0718749      0              0              0              0.98277531   
     94000   0.57164668     0.97537234    -4.8398164     -2.9992667      0.87550044     0.81624786     0.58538964     1.2248638     -0.091140958   -0.011816397   -0.38588299     6.0871978      6.0871978      6.0871978      0              0              0              0.97537234   
     95000   0.55184835     0.98979064    -4.9993484     -3.1339108      0.93742519     1.2559177      0.38137297     1.1749849     -0.15868328    -0.60039915    -0.25825698     6.0574957      6.0574957      6.0574957      0              0              0              0.98979064   
     96000   0.5680662      0.98565431    -4.9259355     -3.1508028      0.83090109     0.43283309     1.6899732      0.36989701    -0.41751704    -0.19317702     0.41616376     6.0659573      6.0659573      6.0659573      0              0              0              0.98565431   
     97000   0.49290291     0.9953564     -4.9532784     -3.0582406      1.0490878      1.9176058      0.69291371     0.53674387     0.01045984     0.10642832    -0.17629678     6.0461839      6.0461839      6.0461839      0              0              0              0.9953564    
     98000   0.49123483     0.97841018    -4.8945381     -3.193434       0.86094418     1.0889144      0.9872476      0.50667052     0.047065548   -0.3577637     -0.35649974     6.0808913      6.0808913      6.0808913      0              0              0              0.97841018   
     99000   0.4930756      0.9953768     -5.0461359     -3.612648       0.63122499     0.85291115     0.51512049     0.52564334    -0.33797258    -0.35034688     0.36303113     6.0461427      6.0461427      6.0461427      0              0              0              0.9953768    
    100000   0.49721031     1.0054106     -5.0404722     -2.8569941      1.3174459      1.5776161      1.3183971      1.0563244      0.11952827    -0.27369218    -0.068026861    6.0259624      6.0259624      6.0259624      0              0              0              1.0054106    
    101000   0.55385009     0.9885345     -5.0506267     -3.7711684      0.40695003     0.78036037     0.078351395    0.36213833     0.22160278    -0.16926167    -0.013253301    6.0600604      6.0600604      6.0600604      0              0              0              0.9885345    
    102000   0.51717844     1.0006212     -5.1232619     -3.4597067      0.8111094      0.67873156     1.2274998      0.52709679     0.33378102     0.079245085   -0.019992904    6.0355612      6.0355612      6.0355612      0              0              0              1.0006212    
    103000   0.47707382     1.002079      -5.1691896     -3.4323607      0.93356983     0.94161456     1.1933567      0.66573826     0.011434453   -0.12183203     0.61839342     6.0326329      6.0326329      6.0326329      0              0              0              1.002079     
    104000   0.44567666     0.99567265    -5.1579224     -3.8232191      0.60603056     0.064231349    0.78641831     0.96744201    -0.30839462    -0.068681344   -0.18846739     6.0455437      6.0455437      6.0455437      0              0              0              0.99567265   
    105000   0.46259696     0.99695121    -5.0883805     -3.3342521      0.96405404     0.62205981     1.3816821      0.88842021    -0.019767407   -0.1069476      0.16677786     6.0429582      6.0429582      6.0429582      0              0              0              0.99695121   
    106000   0.48582137     1.0168915     -5.1191754     -2.6710619      1.592845       1.9594828      1.5748058      1.2442466     -0.012445067   -0.31504584    -0.008090908    6.0031984      6.0031984      6.0031984      0              0              0              1.0168915    
    107000   0.44360012     0.99370305    -5.1204313     -4.2150577      0.21978949     0.67454281    -0.41098509     0.39581075     0.35522483     0.35142229     0.49348259     6.0495354      6.0495354      6.0495354      0              0              0              0.99370305   
    108000   0.40660153     1.0124468     -5.1907138     -3.1024238      1.3635239      1.7651702      1.4616691      0.86373245    -0.22324718    -0.3605275     -0.11924446     6.0119703      6.0119703      6.0119703      0              0              0              1.0124468    
    109000   0.46001665     1.0052717     -5.1924552     -2.9503206      1.4216001      1.7682006      0.87880232     1.6177975     -0.43495032    -0.24597019    -0.24145321     6.0262398      6.0262398      6.0262398      0              0              0              1.0052717    
    110000   0.41640249     1.0102645     -5.2011354     -3.5684828      0.92868288     0.97492777     1.2310239      0.58009699     0.055891048   -0.188147       0.60942472     6.0162959      6.0162959      6.0162959      0              0              0              1.0102645    
    111000   0.38711694     1.0098437     -5.2590789     -3.6518264      0.94510395     0.92737667     1.0073508      0.90058435     0.0021766207   0.17354526    -0.2154214      6.0171316      6.0171316      6.0171316      0              0              0              1.0098437    
    112000   0.38192415     0.99314341    -5.2583317     -4.9320539     -0.22006605    -0.21167385    -0.42066605    -0.027858247   -0.17111166    -0.23898995     0.10702355     6.0506715      6.0506715      6.0506715      0              0              0              0.99314341   
    113000   0.35555385     1.018937      -5.2852589     -3.6715582      1.0032236      1.0622746      1.2248077      0.72258845    -0.022004779   -0.2031354     -0.045566722    5.9991786      5.9991786      5.9991786      0              0              0              1.018937     
    114000   0.36715668     1.0153844     -5.2424043     -3.3297432      1.259704       1.5895274      1.2315692      0.95801551     0.24749692    -0.2867829     -0.54880717     6.006167       6.006167       6.006167       0              0              0              1.0153844    
    115000   0.34779128     1.0183849     -5.3127581     -3.7282509      0.98637873     1.5882135      0.96868415     0.40223851     0.34163453    -0.70130124    -0.23028831     6.0002623      6.0002623      6.0002623      0              0              0              1.0183849    
    116000   0.30395571     1.007932      -5.2961806     -3.8437483      0.91518247     0.88567542     0.97687571     0.88299627    -0.37083455    -0.10920869     0.104456       6.0209333      6.0209333      6.0209333      0              0              0              1.007932     
    117000   0.31874271     1.0104465     -5.2869297     -3.9105027      0.82737519     0.93739623     0.96003861     0.58469071    -0.27956991     0.21217625     0.156852       6.0159348      6.0159348      6.0159348      0              0              0              1.0104465    
    118000   0.33114495     1.0249909     -5.3348735     -3.3109872      1.4253453      1.6605722      1.5484206      1.067043      -0.069762379    0.31990139    -0.64341487     5.9873443      5.9873443      5.9873443      0              0              0              1.0249909    
    119000   0.31505878     1.0177885     -5.3030201     -3.629412       1.1134447      1.1275173      0.81202027     1.4007965      0.11790522     0.056677024   -0.22268469     6.0014342      6.0014342      6.0014342      0              0              0              1.0177885    
    120000   0.31135004     1.0195705     -5.3864564     -4.3432646      0.53620311     0.43288527     0.80285256     0.3728715      0.26723955     0.016374392   -0.065454671    5.9979358      5.9979358      5.9979358      0              0              0              1.0195705    
    121000   0.26768984     1.022074      -5.3322574     -3.9097456      0.95051462     1.454689       0.60289215     0.79396271     0.27078299    -0.41079671    -0.17460585     5.9930345      5.9930345      5.9930345      0              0              0              1.022074     
    122000   0.25894853     1.0258762     -5.4066227     -3.643271       1.2840901      2.0283805      1.0062106      0.81767923     0.30575662    -0.058841205   -0.23824104     5.9856214      5.9856214      5.9856214      0              0              0              1.0258762    
    123000   0.30758865     1.016329      -5.4428961     -4.6714054      0.28865092     0.39954765     0.43452022     0.031884886   -0.25308939    -0.0086373851  -0.15021153     6.0043056      6.0043056      6.0043056      0              0              0              1.016329     
    124000   0.25459438     1.0364174     -5.4505567     -3.3671383      1.6049737      2.0162602      1.4183891      1.3802719      0.44349291     0.21350775    -0.47673842     5.9652593      5.9652593      5.9652593      0              0              0              1.0364174    
    125000   0.25101601     1.0274732     -5.4322441     -3.8467948      1.1309751      1.1530421      0.93073386     1.3091493      0.35833517     0.097573989    0.018987832    5.9825186      5.9825186      5.9825186      0              0              0              1.0274732    
    126000   0.22732577     1.0292559     -5.4755519     -4.2661379      0.8141697      0.85742466     0.77307305     0.81201139     0.03671762    -0.27185409    -0.076882885    5.9790627      5.9790627      5.9790627      0              0              0              1.0292559    
    127000   0.23633545     1.0299459     -5.5147801     -4.1373116      0.95947687     1.0955057      0.66424506     1.1186799      0.25004088    -0.02441797    -0.36582207     5.9777271      5.9777271      5.9777271      0              0              0              1.0299459    
    128000   0.26049688     1.0306616     -5.5017029     -4.1658217      0.8873899      1.0216036      0.59500695     1.0455591      0.10189599    -0.062652504   -0.17819998     5.9763431      5.9763431      5.9763431      0              0              0              1.0306616    
    129000   0.21652411     1.0377488     -5.5354584     -3.6500571      1.4738288      1.3067246      1.6092698      1.5054921     -0.15935889     0.17682272    -0.16949429     5.9627071      5.9627071      5.9627071      0              0              0              1.0377488    
    130000   0.21674626     1.0288391     -5.5274105     -4.2221659      0.91823963     0.73345238     0.57681347     1.444453       0.099796553   -0.073035111   -0.25919527     5.97987        5.97987        5.97987        0              0              0              1.0288391    
    131000   0.2008084      1.0358406     -5.5715957     -4.4140771      0.80777864     1.0031878      0.62771151     0.79243662    -0.024101644   -0.023806425   -0.69159272     5.9663664      5.9663664      5.9663664      0              0              0              1.0358406    
    132000   0.168502       1.0403414     -5.5947982     -4.2236097      1.0589723      0.93425011     0.83436996     1.4082969     -0.079718413   -0.16746988    -0.43037614     5.9577498      5.9577498      5.9577498      0              0              0              1.0403414    
    133000   0.16704934     1.031957      -5.5814638     -4.5768402      0.70858156     0.65963317     0.83846313     0.62764839    -0.013434947   -0.37089125    -0.28175978     5.9738415      5.9738415      5.9738415      0              0              0              1.031957     
    134000   0.15361667     1.0377992     -5.5853875     -4.2634168      1.0309099      1.1953604      0.682698       1.2146713      0.032728982   -0.29862694    -0.49754399     5.9626106      5.9626106      5.9626106      0              0              0              1.0377992    
    135000   0.13965717     1.0464736     -5.625355      -4.0597884      1.2910899      1.2850925      1.1167333      1.4714441      0.11822077    -0.13999402    -0.16413832     5.9460899      5.9460899      5.9460899      0              0              0              1.0464736    
    136000   0.15663973     1.0382038     -5.6331065     -4.4047278      0.93871928     0.97713543     0.51375919     1.3252632     -0.023416546    0.013150653   -0.31117214     5.9618359      5.9618359      5.9618359      0              0              0              1.0382038    
    137000   0.1235092      1.0388673     -5.6435596     -4.6389476      0.77468761     0.72019595     0.58529517     1.0185717     -0.08342305     0.0096495796  -0.27846727     5.9605665      5.9605665      5.9605665      0              0              0              1.0388673    
    138000   0.1320255      1.0492699     -5.6725535     -3.9711835      1.4349452      1.5580465      1.0094998      1.7372894     -0.026740221   -0.27794061    -0.54205886     5.940803       5.940803       5.940803       0              0              0              1.0492699    
    139000   0.12023337     1.0440845     -5.677996      -4.306033       1.1318964      1.3630452      0.87365172     1.1589923     -0.03183882    -0.16077329    -0.33960328     5.9506217      5.9506217      5.9506217      0              0              0              1.0440845    
    140000   0.09756309     1.0362635     -5.6928501     -4.9453433      0.56701881     0.52274127     0.29937114     0.87894401    -0.038648738   -0.08285777    -0.31982226     5.9655546      5.9655546      5.9655546      0              0              0              1.0362635    
Loop time of 15.9971 on 12 procs for 140000 steps with 200 atoms

Performance: 1512273.950 tau/day, 8751.585 timesteps/s
80.7% CPU use with 12 MPI tasks x 1 OpenMP threads

MPI task timing breakdown:
Section |  min time  |  avg time  |  max time  |%varavg| %total
---------------------------------------------------------------
Pair    | 2.8515     | 3.1683     | 3.5446     |  12.2 | 19.81
Bond    | 0.058742   | 0.065843   | 0.074715   |   2.0 |  0.41
Neigh   | 0.020173   | 0.020654   | 0.020971   |   0.2 |  0.13
Comm    | 9.9445     | 10.354     | 10.696     |   7.3 | 64.72
Output  | 0.014878   | 0.014985   | 0.015841   |   0.2 |  0.09
Modify  | 1.5451     | 1.5958     | 1.6341     |   2.4 |  9.98
Other   |            | 0.7775     |            |       |  4.86

Nlocal:        16.6667 ave          20 max          15 min
Histogram: 4 0 1 0 4 0 2 0 0 1
Nghost:        2297.92 ave        2316 max        2280 min
Histogram: 1 0 3 1 1 3 0 0 1 2
Neighs:        5228.33 ave        6553 max        4114 min
Histogram: 1 0 2 5 0 1 0 0 1 2

Total # of neighbors = 62740
Ave neighs/atom = 313.7
Ave special neighs/atom = 10.22
Neighbor list builds = 97
Dangerous builds = 0
System init for write_data ...
Generated 0 of 1 mixed pair_coeff terms from geometric mixing rule
WARNING: Proc sub-domain size < neighbor skin, could lead to lost atoms (src/domain.cpp:970)
WARNING: Not all mixed pair coeffs generated from mixing. Use write_data with 'pair ij' option to store all pair coeffs. (src/write_data.cpp:309)
Total wall time: 0:00:16
