LAMMPS (23 Jun 2022)
OMP_NUM_THREADS environment is not set. Defaulting to 1 thread. (src/comm.cpp:98)
  using 1 OpenMP thread(s) per MPI task
Reading data file ...
  orthogonal box = (0 0 0) to (200 200 200)
  1 by 1 by 1 MPI processor grid
  reading atoms ...
  200 atoms
  scanning bonds ...
  1 = max bonds/atom
  reading bonds ...
  80 bonds
Finding 1-2 1-3 1-4 neighbors ...
  special bond factors lj:    0        0        0       
  special bond factors coul:  0        0        0       
     1 = max # of 1-2 neighbors
     0 = max # of 1-3 neighbors
     0 = max # of 1-4 neighbors
     1 = max # of special neighbors
  special bonds CPU = 0.000 seconds
  read_data CPU = 0.031 seconds
Generated 0 of 1 mixed pair_coeff terms from geometric mixing rule
Neighbor list info ...
  update every 1 steps, delay 0 steps, check yes
  max neighbors/atom: 2000, page size: 100000
  master list distance cutoff = 5.5
  ghost atom cutoff = 5.5
  binsize = 2.75, bins = 73 73 73
  1 neighbor lists, perpetual/occasional/extra = 1 0 0
  (1) pair lj/cut, perpetual
      attributes: half, newton on
      pair build: half/bin/newton
      stencil: half/bin/3d
      bin: standard
Setting up Verlet run ...
  Unit style    : lj
  Current step  : 0
  Time step     : 0.002
Per MPI rank memory allocation (min/avg/max) = 7.938 | 7.938 | 7.938 Mbytes
   Step          Temp         Density         PotEng        Enthalpy        Press           Pxx            Pyy            Pzz            Pxy            Pxz            Pyz             Lx             Ly             Lz             Xy             Yz             Xz          Density    
         0   1              2.75e-05       2.2913944e-28  2.4875         2.4875e-05     2.4540872e-05  2.7057051e-05  2.3027077e-05 -8.5634887e-07  1.0219777e-06  4.891355e-07   200            200            200            0              0              0              2.75e-05     
       100   2.5460692      0.00020837979  4.84198       -3.056329      -0.0022160845  -0.0064438455  -9.1411273e-05 -0.00011299676 -0.00011418486  0.00013728392 -2.0090717e-05  101.8253       101.8253       101.8253       0              0              0              0.00020837979
       200   4.2640173      0.00048094567  1.6515352      17.205317      0.0040179672   0.0058416615   0.0033636118   0.0028486284  -4.2624545e-05 -8.577244e-05   7.8886212e-05  77.050516      77.050516      77.050516      0              0              0              0.00048094567
       300   3.4111295      0.00083253538  0.10368629     9.1547371      0.002997082    0.0036038997   0.0028706705   0.002516676   -3.483086e-05  -8.0083848e-05  5.3450106e-05  64.171175      64.171175      64.171175      0              0              0              0.00083253538
       400   2.6574873      0.001251841    1.5330756      0.9177261     -0.0052140875  -0.004694461   -0.0057827925  -0.0051650091  -0.00035319975 -0.00029802584 -0.00024225646  56.013302      56.013302      56.013302      0              0              0              0.001251841  
       500   1.8572717      0.0017357498   1.6144492      11.417521      0.011094745    0.0099764005   0.013066413    0.01024142    -0.00060743148  0.0006348835   4.124815e-05   50.231775      50.231775      50.231775      0              0              0              0.0017357498 
       600   1.9064555      0.002279916    0.3409432      2.3340961     -0.0017663794  -0.0021475529  -0.0021189244  -0.0010326609   9.2434666e-05 -0.00038393097 -0.0001343534   45.867099      45.867099      45.867099      0              0              0              0.002279916  
       700   1.9973837      0.0028743483   0.26534158     2.6616566     -0.0015280563  -0.00078576667 -0.0019445918  -0.0018538104  -0.00047339676 -0.00027014396  5.28363e-05    42.458153      42.458153      42.458153      0              0              0              0.0028743483 
       800   1.0158536      0.0035282798   0.96095086     7.7313597      0.01685314     0.01599242     0.019683944    0.014883057   -0.0013690802   0.0014385307  -0.00021494585  39.653959      39.653959      39.653959      0              0              0              0.0035282798 
       900   0.9687372      0.0042286399   0.66137623    -1.3297342     -0.013212388   -0.013606021   -0.015479118   -0.010552026    0.0010341893  -0.0015476731   0.00016795815  37.331375      37.331375      37.331375      0              0              0              0.0042286399 
      1000   1.4226325      0.0049740977   0.04712796     4.006586       0.0083030309   0.0077810975   0.010006557    0.0071214386  -0.0011750562   0.00067792753 -0.00013387423  35.364657      35.364657      35.364657      0              0              0              0.0049740977 
      1100   0.92639914     0.0057763707   0.33775231     5.3087309      0.018843193    0.020772831    0.020085237    0.01567151    -0.002085973    0.0010834833  -0.00033434005  33.645156      33.645156      33.645156      0              0              0              0.0057763707 
      1200   0.70258891     0.0066110189   0.66346566    -2.1309102     -0.023096435   -0.02827491    -0.024342745   -0.01667165     0.0022827098  -0.002000026    0.00075437057  32.165089      32.165089      32.165089      0              0              0              0.0066110189 
      1300   1.0091781      0.0074953329   0.24014425     4.9079522      0.021543015    0.023977537    0.023730647    0.016920859   -0.0026618758   0.0012160561  -0.00073557529  30.846833      30.846833      30.846833      0              0              0              0.0074953329 
      1400   1.0173403      0.008428814    0.015761168    3.286476       0.013427365    0.017064669    0.012745282    0.010472145   -0.0016668373   0.00075208805  5.3125511e-05  29.66325       29.66325       29.66325       0              0              0              0.008428814  
      1500   0.88199236     0.0093837456   0.40184003    -0.90520394    -0.02237953    -0.035107309   -0.019294716   -0.012736565    0.0026895706  -0.0018551274   0.0013337543   28.620825      28.620825      28.620825      0              0              0              0.0093837456 
      1600   0.86512193     0.010397719    0.44444732     5.4568381      0.035174503    0.04445578     0.03445114     0.026616588   -0.0040066855   0.00064830521 -0.0018595077   27.658473      27.658473      27.658473      0              0              0              0.010397719  
      1700   1.0876402      0.011446527    0.053097337    1.464087      -0.002209319   -0.0028289399  -0.0045778382   0.00077882114 -0.00081718031 -0.00014465287  0.0017545766   26.786521      26.786521      26.786521      0              0              0              0.011446527  
      1800   1.177679       0.012516241    0.10974046     1.05047       -0.0092956562  -0.022636684    0.0022057318  -0.0074560169   0.0033618167   8.8708848e-05  0.001535747    26.000573      26.000573      26.000573      0              0              0              0.012516241  
      1900   0.92973688     0.013650649    0.41759317     5.6076299      0.047186625    0.064916687    0.040730877    0.035912311   -0.0062191067   4.239606e-05  -0.0036262264   25.259406      25.259406      25.259406      0              0              0              0.013650649  
      2000   0.99338906     0.01480164     0.25958462    -0.10154815    -0.024809781   -0.039420943   -0.020972671   -0.01403573     0.0018717598   0.0039458068   0.0030082327   24.586929      24.586929      24.586929      0              0              0              0.01480164   
      2100   1.2124381      0.01598573    -0.012338583    2.6941164      0.013034054    0.010797993    0.017999585    0.010304584   -0.0016520125  -0.00052149729 -0.0012854609   23.964226      23.964226      23.964226      0              0              0              0.01598573   
      2200   0.98353117     0.017231662    0.1693788      4.7884894      0.049363862    0.068914245    0.04084869     0.038328652   -0.0042081266  -0.0037187233  -0.0011921423   23.372141      23.372141      23.372141      0              0              0              0.017231662  
      2300   0.85089018     0.018475416    0.31916002    -1.0819889     -0.044863391   -0.069066709   -0.036736662   -0.028786802    0.0036363655   0.0049431865   0.0045522972   22.835445      22.835445      22.835445      0              0              0              0.018475416  
      2400   1.0528284      0.019774404    0.013287078    3.6904998      0.037856593    0.048739309    0.03613195     0.028698521   -0.0031016948  -0.0017992957  -0.0059387646   22.324055      22.324055      22.324055      0              0              0              0.019774404  
      2500   1.0100836      0.021121061   -0.049532414    3.4168325      0.037611142    0.047916407    0.027488312    0.037428706   -0.0044111005  -0.0049265503  -0.0013280256   21.839146      21.839146      21.839146      0              0              0              0.021121061  
      2600   0.8599603      0.022457397    0.21628633    -0.69707765    -0.044850581   -0.063713099   -0.030245585   -0.040593058   -0.00049994282  0.0069845297   0.014959206    21.397076      21.397076      21.397076      0              0              0              0.022457397  
      2700   0.9196084      0.023867043    0.14503495     4.2894026      0.06014174     0.078003512    0.055423866    0.046997843   -0.002513796   -0.0064523024  -0.0072657459   20.967244      20.967244      20.967244      0              0              0              0.023867043  
      2800   1.057814       0.025299694   -0.091534774    2.0318524      0.012525645    0.010171743    0.0094799438   0.017925249   -0.0027133815   0.00036413024 -0.0021197811   20.563757      20.563757      20.563757      0              0              0              0.025299694  
      2900   1.0325139      0.026730174    0.050304133    0.49620105    -0.026611832   -0.035450536   -0.019407967   -0.024976994   -0.0036416587   0.0070990742   0.0027061454   20.190185      20.190185      20.190185      0              0              0              0.026730174  
      3000   0.9437584      0.02824346     0.18751318     4.5824554      0.076677985    0.095552619    0.073522429    0.060958907   -0.0032849298  -0.0072432948  -0.00070523646  19.822949      19.822949      19.822949      0              0              0              0.02824346   
      3100   1.0426631      0.029749421    0.026660217    0.7610553     -0.02222497    -0.037962667   -0.013669222   -0.01504302    -0.0017967652   0.0060663777   0.00083477778  19.482651      19.482651      19.482651      0              0              0              0.029749421  
      3200   1.1348452      0.031278818   -0.060198531    1.8202494      0.0053086237   0.012051242    0.0069544001  -0.0030797711  -0.0084779095  -0.0018090736  -0.0032007326   19.159792      19.159792      19.159792      0              0              0              0.031278818  
      3300   0.99780921     0.032888071    0.071277146    4.2724257      0.081081599    0.10884004     0.073246509    0.061158249    0.0060816478  -0.0065962517  -0.0032058939   18.842048      18.842048      18.842048      0              0              0              0.032888071  
      3400   0.95319455     0.034465411    0.096194247   -0.078932255   -0.050061617   -0.086415846   -0.042367564   -0.021401441   -0.011609958    0.014474032    0.0052337358   18.550106      18.550106      18.550106      0              0              0              0.034465411  
      3500   1.0560148      0.03610073    -0.0762401      2.7882474      0.042283321    0.049470168    0.04402407     0.033355724    0.0098200068   0.0036572004  -0.0029657175   18.265668      18.265668      18.265668      0              0              0              0.03610073   
      3600   1.0127283      0.037788122   -0.10888824     3.4515105      0.070385593    0.095763069    0.067408127    0.047985582   -0.0028754473  -0.0049724724   0.0034845466   17.989639      17.989639      17.989639      0              0              0              0.037788122  
      3700   0.92412729     0.039442183   -0.0050944343  -0.33355549    -0.06123295    -0.093254375   -0.049418434   -0.041026042   -0.002744277   -0.0046883314   0.0073872133   17.734567      17.734567      17.734567      0              0              0              0.039442183  
      3800   0.9559685      0.041184338   -0.072952851    3.2204799      0.06988794     0.091995392    0.067799569    0.04986886     0.017801736    0.0056678528   0.0055152249   17.48089       17.48089       17.48089       0              0              0              0.041184338  
      3900   1.0013368      0.042944218   -0.18881964     2.4059136      0.042953511    0.038688358    0.054275303    0.035896872   -0.0071777079   0.0033346319  -0.01478495     17.238759      17.238759      17.238759      0              0              0              0.042944218  
      4000   0.9644441      0.044676014   -0.09784182     0.26959582    -0.043538611   -0.049649011   -0.044301812   -0.03666501     0.0020191006  -0.021991462    0.005225312    17.013073      17.013073      17.013073      0              0              0              0.044676014  
      4100   0.96613275     0.046510604   -0.088711955    3.6282661      0.096193442    0.12903857     0.080007362    0.079534393   -0.0016827212  -0.00063537537  0.013833096    16.786374      16.786374      16.786374      0              0              0              0.046510604  
      4200   1.0033542      0.048329193   -0.14501482     1.326137      -0.0011578978  -0.02755983     0.015939047    0.0081470901  -0.001081305    0.007229328   -0.00085716524  16.573124      16.573124      16.573124      0              0              0              0.048329193  
      4300   1.0453358      0.050158792   -0.16318444     0.98627556    -0.018727636   -0.0060223634  -0.04671213    -0.0034484136   0.00012322481 -0.0014497367  -0.0085252196   16.369115      16.369115      16.369115      0              0              0              0.050158792  
      4400   1.0234988      0.052075249   -0.13865        3.6158607      0.10542581     0.11959524     0.11055345     0.086128732    0.0027648174   0.0063811474   0.015726409    16.165797      16.165797      16.165797      0              0              0              0.052075249  
      4500   0.99817216     0.053962259   -0.12642144     0.72593426    -0.031269473   -0.046147468   -0.015872291   -0.03178866    -0.0024483176  -0.0073212281   0.0088610896   15.975122      15.975122      15.975122      0              0              0              0.053962259  
      4600   1.0247155      0.055889277   -0.16591257     1.512459       0.007569624    0.034682973   -0.016389467    0.0044153656  -0.00024586331 -0.001702392   -0.0077471626   15.789367      15.789367      15.789367      0              0              0              0.055889277  
      4700   1.0145725      0.057883369   -0.19141568     3.0427808      0.090505752    0.086815567    0.098192109    0.086509579   -0.017130172   -0.0011014285   0.0056186934   15.605929      15.605929      15.605929      0              0              0              0.057883369  
      4800   0.99148056     0.059834693   -0.17917557     0.70169986    -0.032577777   -0.030930721   -0.046948029   -0.01985458     0.025458354    0.00070213508  0.0019516902   15.434404      15.434404      15.434404      0              0              0              0.059834693  
      4900   1.0136718      0.061841253   -0.22448737     2.0487013      0.04274262     0.050601559    0.032835094    0.044791207   -0.0079003959   0.011087161    0.00078352463  15.265632      15.265632      15.265632      0              0              0              0.061841253  
      5000   0.98825293     0.063900171   -0.23081569     2.8179648      0.09142447     0.089684686    0.074368188    0.11022054    -0.014134598   -0.020853363    0.0060752206   15.099882      15.099882      15.099882      0              0              0              0.063900171  
      5100   0.9491732      0.065915095   -0.19072715     0.24948002    -0.058510662   -0.07434207    -0.029614561   -0.071575356   -0.0072377779   0.010238345   -0.0023113183   14.944427      14.944427      14.944427      0              0              0              0.065915095  
      5200   0.98289184     0.068017721   -0.24454134     2.4228831      0.074229489    0.066811357    0.083402626    0.072474485   -0.026139705    0.0057185801   0.0033938513   14.78882       14.78882       14.78882       0              0              0              0.068017721  
      5300   0.9914844      0.070138553   -0.28558428     2.3166558      0.071569994    0.11242783     0.047054875    0.055227278   -0.0051565654  -0.020813184   -0.0024337178   14.638232      14.638232      14.638232      0              0              0              0.070138553  
      5400   1.0007859      0.072213789   -0.29395065     0.43147701    -0.050434455   -0.065086308   -0.027261827   -0.058955228    0.0040898289  -0.012696906   -0.0084954437   14.496645      14.496645      14.496645      0              0              0              0.072213789  
      5500   1.0144251      0.074403197   -0.3219685      2.4741263      0.086717962    0.09556876     0.070259049    0.094326078    0.00066074603 -0.0033805719   0.012450546    14.353033      14.353033      14.353033      0              0              0              0.074403197  
      5600   1.0215702      0.076574455   -0.35671675     1.5486074      0.026496887    0.022754019    0.047606826    0.009129817   -0.023476204   -0.010355658   -0.0068051536   14.216071      14.216071      14.216071      0              0              0              0.076574455  
      5700   1.0104411      0.078767601   -0.35931062     0.8762569     -0.019514015   -0.01537856    -0.023167061   -0.019996424    0.014690297    0.017893547    0.021434517    14.082887      14.082887      14.082887      0              0              0              0.078767601  
      5800   0.98267139     0.081021522   -0.35005906     2.2369996      0.082525694    0.088833871    0.084575067    0.074168144    0.0009561577  -0.025414643    0.0057919914   13.951067      13.951067      13.951067      0              0              0              0.081021522  
      5900   1.0008236      0.08326098    -0.41727508     1.1624428      0.0065086303   0.0086629426   0.0020769457   0.0087860025  -0.019561949    0.013895991   -0.028051614    13.824849      13.824849      13.824849      0              0              0              0.08326098   
      6000   1.0133195      0.085525974   -0.46679162     1.0974363      0.004031276   -0.0086808379   0.018418097    0.0023565688   0.016245337   -0.015699015   -0.0042139886   13.701714      13.701714      13.701714      0              0              0              0.085525974  
      6100   1.0235054      0.087835282   -0.51940728     2.0750423      0.085189667    0.075678544    0.10193115     0.077959312   -0.0058626441  -0.004669701    0.046295007    13.580567      13.580567      13.580567      0              0              0              0.087835282  
      6200   0.98502805     0.09015659    -0.5111712      1.0000882      0.0033689874   0.013412669    0.028051327   -0.031357034   -0.0086965267   0.018705059    0.0054798887   13.462997      13.462997      13.462997      0              0              0              0.09015659   
      6300   1.0017134      0.09248925    -0.57174485     1.0786493      0.013060906   -0.0019506614   0.037114571    0.0040188094   0.011690636   -0.01024211    -0.0081121132   13.348849      13.348849      13.348849      0              0              0              0.09248925   
      6400   0.98711254     0.09489048    -0.59868776     1.8395011      0.08323822     0.088753589    0.060274357    0.10068672    -0.013446621   -0.02554198     0.019994276    13.235286      13.235286      13.235286      0              0              0              0.09489048   
      6500   0.93231873     0.09730101    -0.55882671     0.40572215    -0.037764897   -0.029334868   -0.050054851   -0.033904973   -0.0017376993   0.057437737   -0.0080078925   13.125075      13.125075      13.125075      0              0              0              0.09730101   
      6600   0.98820385     0.099741354   -0.64635765     0.73565597    -0.008421854   -0.024737435    0.012396776   -0.012924903   -0.012087329    0.01064836    -0.017725696    13.017147      13.017147      13.017147      0              0              0              0.099741354  
      6700   0.99429875     0.10223327    -0.65424553     1.7608565      0.086536854    0.080931794    0.10301597     0.075662799   -0.010811268   -0.041678157    0.033998779    12.910512      12.910512      12.910512      0              0              0              0.10223327   
      6800   0.96904698     0.1046857     -0.59729926     0.27987175    -0.054163583   -0.037267732   -0.068860773   -0.056362243    0.049359202    0.066883008    0.038234875    12.808898      12.808898      12.808898      0              0              0              0.1046857    
      6900   1.0324125      0.10719114    -0.65287869     1.545122       0.064034538    0.069900552    0.053532707    0.068670355   -0.044212216   -0.01963491    -0.04790668     12.708314      12.708314      12.708314      0              0              0              0.10719114   
      7000   1.0687598      0.10970998    -0.6964406      1.6190241      0.071844152    0.071924379    0.083385119    0.060222957   -0.035906957    0.0021746741  -0.0037318997   12.610303      12.610303      12.610303      0              0              0              0.10970998   
      7100   1.0722962      0.11219406    -0.71153293     0.39305311    -0.050570555   -0.098743087   -0.027064854   -0.025903725    0.026266289   -0.011689114    0.021583677    12.516539      12.516539      12.516539      0              0              0              0.11219406   
      7200   1.0801038      0.1147528     -0.77506796     1.5037525      0.069557461    0.031457821    0.071981715    0.10523285    -0.0092166241  -0.018647801    0.0075569538   12.422809      12.422809      12.422809      0              0              0              0.1147528    
      7300   1.0146414      0.11735255    -0.76884079     0.92617666     0.0192741      0.073931435   -0.0088457503  -0.0072633866   0.011373599    0.01086781     0.0063984656   12.330387      12.330387      12.330387      0              0              0              0.11735255   
      7400   0.94952034     0.11995551    -0.7481693      0.74464098     0.0082497948  -0.054686777    0.028621855    0.050814307   -0.041630144    0.00032010526 -0.025013224    12.240547      12.240547      12.240547      0              0              0              0.11995551   
      7500   0.93797236     0.12260399    -0.79903818     1.2933385      0.077179538    0.057900833    0.064576805    0.10906098     0.019687887   -0.0041414152   0.039230134    12.151765      12.151765      12.151765      0              0              0              0.12260399   
      7600   0.94437885     0.12524173    -0.84973085     0.36524881    -0.022145672    0.049737032   -0.086065473   -0.030108576    0.028312784    0.031008984   -0.017483576    12.065849      12.065849      12.065849      0              0              0              0.12524173   
      7700   0.96170475     0.12795586    -0.88363629     0.87728887     0.037872705    0.059501019   -0.0078730411   0.061990136    0.011129031    0.024019661   -0.00031293659  11.979927      11.979927      11.979927      0              0              0              0.12795586   
      7800   0.9403983      0.1306797     -0.84494423     0.85966118     0.035765959    0.025977903    0.061912558    0.019407417   -0.012327513   -0.027531682   -0.0020086757   11.896107      11.896107      11.896107      0              0              0              0.1306797    
      7900   0.96641413     0.13339865    -0.85005941     0.58618938    -0.00074270302 -0.016307615    0.050445826   -0.036366321   -0.0095385085  -0.0074497033   0.035765186    11.814729      11.814729      11.814729      0              0              0              0.13339865   
      8000   1.0209427      0.13612714    -0.88017099     0.79760685     0.019060375    0.037204161   -0.027367368    0.047344334   -0.017542459   -0.042043716   -0.00069256825  11.735258      11.735258      11.735258      0              0              0              0.13612714   
      8100   1.0881526      0.13894896    -0.93827357     0.94870896     0.033210672    0.033739496   -0.0089608449   0.074853364    0.019886605   -0.055394935   -0.012105993    11.655273      11.655273      11.655273      0              0              0              0.13894896   
      8200   1.0731573      0.14173684    -0.90137392     0.98986361     0.037309027    0.012575201    0.038597835    0.060754046   -0.040066322   -0.022187068    0.0057627774   11.578349      11.578349      11.578349      0              0              0              0.14173684   
      8300   1.1368994      0.14445124    -1.028893       1.1276949      0.060376088    0.02443389     0.11189997     0.044794399   -0.017753509   -0.005598588   -0.0098957611   11.505367      11.505367      11.505367      0              0              0              0.14445124   
      8400   1.0005306      0.14720969    -0.91551375     0.73600675     0.021175264    0.0020172058   0.04803365     0.013474938    0.013665092    0.050864599   -0.030453071    11.43305       11.43305       11.43305       0              0              0              0.14720969   
      8500   0.9573662      0.15012784    -0.94837978    -0.084156897   -0.077062826   -0.057423644   -0.13657638    -0.037188453    0.014252067   -0.01480319    -0.0063613337   11.358487      11.358487      11.358487      0              0              0              0.15012784   
      8600   0.95128284     0.15311424    -1.0086281      0.71924005     0.042882918    0.03252786     0.096338391   -0.0002174981   0.0011321376   0.023014038    0.015427208    11.284155      11.284155      11.284155      0              0              0              0.15311424   
      8700   0.94776        0.15605018    -1.0487641      0.61959609     0.036009068    0.029551018   -0.037571927    0.11604811    -0.010823234    0.027882024   -0.031069086    11.212939      11.212939      11.212939      0              0              0              0.15605018   
      8800   0.9179015      0.15900843    -1.0189406      0.11674849    -0.033865739   -0.0025679758  -0.029931009   -0.069098232    0.027213797   -0.047945525   -0.043838972    11.142967      11.142967      11.142967      0              0              0              0.15900843   
      8900   0.96628877     0.16195308    -1.0677912      0.67855773     0.044781934    0.083307165    0.040594154    0.010444483   -0.013143401    0.03875221    -0.044180295    11.075019      11.075019      11.075019      0              0              0              0.16195308   
      9000   0.95365311     0.16490014    -1.0033717      0.82256684     0.06035514     0.031178119    0.026610159    0.12327714     0.044569959   -0.085127049    0.10680304     11.008646      11.008646      11.008646      0              0              0              0.16490014   
      9100   0.99438527     0.16788099    -0.99970704     0.2319279     -0.038534041   -0.041215651   -0.10513186     0.030745388   -0.0038798837   0.0075118247  -0.00082623015  10.9431        10.9431        10.9431        0              0              0              0.16788099   
      9200   1.0339172      0.17095865    -1.00121        0.73320571     0.029730366   -0.015757671    0.029293398    0.075655371    0.031622428   -0.04005242     0.06084132     10.877035      10.877035      10.877035      0              0              0              0.17095865   
      9300   1.0967167      0.1739179     -1.0466401      1.109644       0.082126306    0.1109931      0.089579709    0.045806115    0.026867585   -0.064976776    0.020034474    10.81499       10.81499       10.81499       0              0              0              0.1739179    
      9400   1.0973689      0.17691222    -1.0515499      0.72291105     0.021975357   -0.033226498    0.031072068    0.068080501   -0.021030643    0.010371362    0.010807489    10.753626      10.753626      10.753626      0              0              0              0.17691222   
      9500   1.0684634      0.18000959    -1.071744       0.61870226     0.015671406    0.065245594    0.048845353   -0.067076728    0.067756965   -0.033535473    0.021206197    10.691591      10.691591      10.691591      0              0              0              0.18000959   
      9600   1.0779913      0.18313322    -1.183265       0.51509397     0.014893218    0.090006583   -0.015786169   -0.029540761    0.062555764   -0.0036858693  -0.055524757    10.630455      10.630455      10.630455      0              0              0              0.18313322   
      9700   0.99488222     0.18633508    -1.1736488     -0.11678198    -0.072500425   -0.11622626    -0.10525982     0.003984799   -0.0015934907   0.0079271981   0.011076104    10.569214      10.569214      10.569214      0              0              0              0.18633508   
      9800   1.02573        0.18962513    -1.3272082      0.30470911     0.017413665    0.024877118   -0.075159661    0.10252354     0.028146389   -0.081906019    0.072526886    10.507731      10.507731      10.507731      0              0              0              0.18962513   
      9900   1.0054213      0.19280196    -1.3959062      0.59965748     0.086756021    0.11442546     0.013882953    0.13195965     0.078462782    0.040825327   -0.010475347    10.449698      10.449698      10.449698      0              0              0              0.19280196   
     10000   0.96474233     0.19590413    -1.4219754     -0.613976      -0.1125342     -0.18670627    -0.10546291    -0.045433409   -0.01311711    -0.0042209872   0.051103911    10.394247      10.394247      10.394247      0              0              0              0.19590413   
     10100   0.9323139      0.19922153    -1.4299521      0.21406291     0.04573701    -0.022749625    0.044831476    0.11512918     0.01670691     0.035710562   -0.042437453    10.336229      10.336229      10.336229      0              0              0              0.19922153   
     10200   0.92376034     0.20251956    -1.4476612      0.030622716    0.018332006    0.063400562    0.02344078    -0.031845322   -0.012702047    0.018366776   -0.011969756    10.279814      10.279814      10.279814      0              0              0              0.20251956   
     10300   0.94481664     0.20583459    -1.4747834     -0.69039003    -0.11709097    -0.11497941    -0.066545689   -0.1697478     -0.0063823079   0.0028499517   0.075042656    10.224328      10.224328      10.224328      0              0              0              0.20583459   
     10400   0.98757589     0.20923946    -1.5001548      0.72205788     0.14233147     0.082675971    0.20795996     0.13635848    -0.016368684   -0.0058011043  -0.055917003    10.168566      10.168566      10.168566      0              0              0              0.20923946   
     10500   1.0616244      0.21238675    -1.5531058     -0.12781898    -0.030735774   -0.050927084   -0.10837777     0.067097539    0.008306322    0.033841092    0.024555933    10.118087      10.118087      10.118087      0              0              0              0.21238675   
     10600   0.98851303     0.21561384    -1.3957173      0.13109131     0.010085413   -0.00055301074  0.023555823    0.0072534283   0.097073595    0.10215549     0.013257069    10.067354      10.067354      10.067354      0              0              0              0.21561384   
     10700   1.0410172      0.21885689    -1.4363786      0.58534052     0.093113852    0.068464504    0.052389148    0.1584879      0.0037246814   0.031435866   -0.0011287163   10.01738       10.01738       10.01738       0              0              0              0.21885689   
     10800   1.0745253      0.22207905    -1.4685552      0.43082737     0.059689501    0.034550284    0.079810723    0.064707495    0.035556935   -0.0023376277   0.082999676    9.9686962      9.9686962      9.9686962      0              0              0              0.22207905   
     10900   1.0728489      0.22537378    -1.476837      -0.36305134    -0.099869538   -0.057521951   -0.095797372   -0.14628929     0.035977133    0.017068426    0.061462058    9.9198803      9.9198803      9.9198803      0              0              0              0.22537378   
     11000   1.0802615      0.2288734     -1.535526      -0.087742868   -0.034228478   -0.033250719    0.0073736021  -0.076808316    0.0035145429   0.035534873    0.043871741    9.8690599      9.8690599      9.8690599      0              0              0              0.2288734    
     11100   1.042834       0.23240943    -1.557593       0.79417047     0.16803915     0.27570051     0.133412       0.095004932   -0.06859458     0.023253787   -0.016736098    9.8187525      9.8187525      9.8187525      0              0              0              0.23240943   
     11200   1.001744       0.23570019    -1.5769677      0.0014466012   0.017851349    0.039877842    0.074311214   -0.060635008    0.0044169454   0.075639495    0.067007361    9.7728429      9.7728429      9.7728429      0              0              0              0.23570019   
     11300   0.97664276     0.23910785    -1.6125624     -0.70937109    -0.12052079    -0.10653123    -0.21761146    -0.037419683    0.15477435    -0.12829506    -0.0033743327   9.7261945      9.7261945      9.7261945      0              0              0              0.23910785   
     11400   0.95692348     0.24275681    -1.638836       0.23112303     0.097489094   -0.010195319    0.16668435     0.13597825    -0.10728051    -0.0018222974   0.042912312    9.6772156      9.6772156      9.6772156      0              0              0              0.24275681   
     11500   0.9230275      0.24637772    -1.622351      -0.3073584     -0.014026948   -0.048361391   -0.062877243    0.069157789   -0.02162739    -0.10681321    -0.1046023      9.6295742      9.6295742      9.6295742      0              0              0              0.24637772   
     11600   0.96493919     0.25002798    -1.695315      -0.76786284    -0.11654022    -0.13374704    -0.14511666    -0.070756972    0.031826296   -0.041403046   -0.0046954984   9.5824822      9.5824822      9.5824822      0              0              0              0.25002798   
     11700   1.0053145      0.25376225    -1.7523928      0.40062222     0.15054635     0.059575138    0.11420138     0.27786252    -0.059992331    0.071820764    0.015404681    9.5352457      9.5352457      9.5352457      0              0              0              0.25376225   
     11800   0.99243918     0.25731913    -1.7380156     -0.022485168    0.054812473   -0.011373484    0.062588053    0.11322285    -0.083960277    0.1796328     -0.095155861    9.491107       9.491107       9.491107       0              0              0              0.25731913   
     11900   1.0670641      0.26068268    -1.8525576     -0.15933893     0.02384667     0.031877944    0.12511083    -0.085448762   -0.071597002   -0.12893114    -0.051355987    9.4501094      9.4501094      9.4501094      0              0              0              0.26068268   
     12000   1.0047034      0.26414707    -1.7908801     -0.11363159     0.042678649   -0.041887274   -0.013750766    0.18367399    -0.029555837    0.067037661    0.0068431864   9.4086135      9.4086135      9.4086135      0              0              0              0.26414707   
     12100   0.99434809     0.26782659    -1.8213003     -0.73837877    -0.097669793   -0.0037511468  -0.18465092    -0.10460731     0.12332103     0.044773376   -0.0021181886   9.3653281      9.3653281      9.3653281      0              0              0              0.26782659   
     12200   0.99317812     0.27149776    -1.8524363     -0.027773269    0.084496204    0.093809943    0.13394079     0.025737883   -0.036007003    0.0083543137  -0.029541212    9.322924       9.322924       9.322924       0              0              0              0.27149776   
     12300   0.99119298     0.2750184     -1.8789826     -0.30873573     0.022724359   -0.090908558    0.15289147     0.0061901623  -0.037254105    0.048725322    0.013853648    9.2829706      9.2829706      9.2829706      0              0              0              0.2750184    
     12400   0.94153061     0.27877256    -1.8274531     -0.57841767    -0.039585447   -0.051039883    0.12005152    -0.18776798     0.17198301    -0.024126589   -0.16645087     9.2411117      9.2411117      9.2411117      0              0              0              0.27877256   
     12500   0.97091542     0.28261809    -1.871118      -0.54504083    -0.031605476    0.030600172    0.045850824   -0.17126742    -0.10489538     0.033288654    0.048350043    9.1990062      9.1990062      9.1990062      0              0              0              0.28261809   
     12600   1.0121401      0.28659639    -1.927438       0.075502582    0.12827053     0.29571487     0.081002098    0.0080946212  -0.062283162   -0.024793152    0.024547378    9.1562433      9.1562433      9.1562433      0              0              0              0.28659639   
     12700   1.0316013      0.2902837     -1.9457621     -0.69476995    -0.076179117   -0.16228674    -0.11966029     0.053409684    0.025822885   -0.053495452   -0.012522227    9.117309       9.117309       9.117309       0              0              0              0.2902837    
     12800   1.0578689      0.29392412    -1.9845396     -0.10324099     0.080810239    0.0016115632  -0.018428162    0.25924732    -0.0024056291   0.17537485     0.024519858    9.0795116      9.0795116      9.0795116      0              0              0              0.29392412   
     12900   1.0693681      0.29762508    -2.0304735     -0.29611015     0.037428117   -0.032883031    0.054578251    0.090589133   -0.11901693    -0.085871803    0.087061792    9.04172        9.04172        9.04172        0              0              0              0.29762508   
     13000   0.99811551     0.30128679    -1.9707245     -0.76307933    -0.077250537   -0.15805123     0.046213124   -0.11991351    -0.16546616    -0.027725339    0.06777844     9.0049408      9.0049408      9.0049408      0              0              0              0.30128679   
     13100   0.98617759     0.30504071    -2.0077478     -0.39130299     0.040091993   -0.051303756   -0.080310777    0.25189051    -0.076977422    0.073920732    0.026438431    8.9678491      8.9678491      8.9678491      0              0              0              0.30504071   
     13200   1.0181606      0.30893522    -2.104242      -1.3834283     -0.22434064    -0.17128519    -0.26707385    -0.23466287     0.067243479   -0.0015491661   0.11084307     8.930006       8.930006       8.930006       0              0              0              0.30893522   
     13300   0.90817347     0.31308656    -1.9697152      0.010589894    0.17784917     0.27881789     0.052034732    0.20269488    -0.065608867    0.0083109559  -0.023850913    8.8903614      8.8903614      8.8903614      0              0              0              0.31308656   
     13400   1.0228761      0.31696402    -2.1564438     -1.0681781     -0.1263179     -0.14992434    -0.06641503    -0.16261434    -0.066904256    0.11995131    -0.10278914     8.8539603      8.8539603      8.8539603      0              0              0              0.31696402   
     13500   1.0214598      0.32102102    -2.1742423      0.13248125     0.2282736      0.29033352     0.15921543     0.23527187     0.054666649   -0.21603674    -0.037516433    8.8165039      8.8165039      8.8165039      0              0              0              0.32102102   
     13600   1.0003816      0.32469925    -2.1727659     -0.48285885     0.058102747    0.081048701   -0.0013568978   0.094616438    0.14386554     0.054215313   -0.10859244     8.7830859      8.7830859      8.7830859      0              0              0              0.32469925   
     13700   1.0387784      0.32830813    -2.2637027     -1.280252      -0.16920586    -0.2802931     -0.099029344   -0.12829514     0.040042117   -0.03291019     0.10033661     8.750785       8.750785       8.750785       0              0              0              0.32830813   
     13800   0.94656215     0.33229764    -2.1845671      0.14205507     0.27607231     0.31547076     0.12769498     0.38505119     0.053750665   -0.11476468    -0.094247147    8.7156238      8.7156238      8.7156238      0              0              0              0.33229764   
     13900   1.0071527      0.3361649     -2.3324072     -1.8224987     -0.30354677    -0.26316311    -0.28713647    -0.36034071    -0.026655065    0.0074749911   0.087065205    8.6820731      8.6820731      8.6820731      0              0              0              0.3361649    
     14000   0.97186837     0.34067956    -2.3332195     -1.4869713     -0.18714623    -0.2632627     -0.21925891    -0.078917086   -0.02791048    -0.07307833    -0.11051433     8.6435511      8.6435511      8.6435511      0              0              0              0.34067956   
     14100   0.90828262     0.34535953    -2.2749903     -1.0442226     -0.039196463   -0.024145836   -0.049585779   -0.043857774    0.043481098    0.037969625   -0.031407458    8.6043304      8.6043304      8.6043304      0              0              0              0.34535953   
     14200   0.94737081     0.34982729    -2.3278719     -1.5663435     -0.20748653    -0.30678972    -0.16732206    -0.14834782     0.00018910003  0.049392593    0.011056363    8.5675437      8.5675437      8.5675437      0              0              0              0.34982729   
     14300   1.0059078      0.35447835    -2.3776891     -0.96670279    -0.029109487    0.20712945    -0.17996727    -0.11449065     0.0043589187  -0.057694119   -0.10790227     8.5299075      8.5299075      8.5299075      0              0              0              0.35447835   
     14400   1.0024279      0.35889886    -2.3068072     -0.8293466     -0.0060892114  -0.18884338     0.070547029    0.10002872     0.27052761    -0.1323502     -0.2548094      8.4947422      8.4947422      8.4947422      0              0              0              0.35889886   
     14500   1.1165621      0.36282044    -2.3914929     -0.13291497     0.19529931     0.21384764     0.068158824    0.30389147    -0.27556136     0.025056486   -0.024737551    8.4640258      8.4640258      8.4640258      0              0              0              0.36282044   
     14600   1.1248558      0.3665137     -2.357973      -0.49463001     0.061472904   -0.19187762     0.29921952     0.077076812    0.03471109    -0.072827437    0.12661811     8.4354999      8.4354999      8.4354999      0              0              0              0.3665137    
     14700   1.0234953      0.37012598    -2.2116625     -0.33056692     0.11895475     0.12443711    -0.060945335    0.29337247    -0.058308902    0.10689328    -0.1930276      8.4079677      8.4079677      8.4079677      0              0              0              0.37012598   
     14800   1.0016932      0.37391111    -2.2560678     -1.0974684     -0.11435824     0.049478281   -0.21665107    -0.17590193    -0.10899825     0.19265015    -0.013560966    8.3795         8.3795         8.3795         0              0              0              0.37391111   
     14900   0.92775101     0.37838502    -2.2776704     -1.2889568     -0.13620304    -0.14625767    -0.30042455     0.038073086   -0.098762436    0.048429596   -0.15568506     8.3463434      8.3463434      8.3463434      0              0              0              0.37838502   
     15000   0.92581263     0.38291918    -2.3460536     -0.84396998     0.041880316    0.34982952    -0.056390646   -0.16779793    -0.1157501     -0.07308218     0.17508293     8.3132694      8.3132694      8.3132694      0              0              0              0.38291918   
     15100   0.93445398     0.38727428    -2.3777094     -1.5228724     -0.19005858    -0.35966038    -0.19948717    -0.011028184    0.1281013      0.13697747    -0.11688289     8.2819895      8.2819895      8.2819895      0              0              0              0.38727428   
     15200   0.93565176     0.39206715    -2.3628408     -1.5874827     -0.22137614    -0.33786185    -0.18767141    -0.13859516    -0.040554127   -0.14371274    -0.013616129    8.248103       8.248103       8.248103       0              0              0              0.39206715   
     15300   0.92664046     0.39700124    -2.3039097     -0.99147612    -0.025472062    0.051463593   -0.1107234     -0.017156382    0.15672621    -0.041132217    0.021830173    8.2137902      8.2137902      8.2137902      0              0              0              0.39700124   
     15400   0.96134388     0.40168209    -2.2927204     -0.85134456     0.002399184   -0.11045183     0.096192856    0.021456522   -0.0013923208  -0.033544157   -0.17629554     8.18176        8.18176        8.18176        0              0              0              0.40168209   
     15500   1.0606147      0.40635978    -2.3891048     -1.3274897     -0.19259692    -0.10860358    -0.21488614    -0.25430105    -0.012139951    0.12214241     0.086433065    8.1502449      8.1502449      8.1502449      0              0              0              0.40635978   
     15600   1.0698022      0.41087182    -2.3716213     -0.87472451    -0.03727096    -0.091663833   -0.20229182     0.18214278     0.077539438    0.010518613   -0.16285805     8.1203006      8.1203006      8.1203006      0              0              0              0.41087182   
     15700   1.045937       0.41528581    -2.3506612     -0.19192481     0.22564194     0.32520456     0.26863081     0.083090462    0.12654975    -0.019034686    0.18724927     8.0914284      8.0914284      8.0914284      0              0              0              0.41528581   
     15800   1.0457638      0.4194353     -2.381975      -1.5757589     -0.28772744    -0.37522538    -0.37148598    -0.11647098    -0.17069338     0.14873353     0.089643842    8.064657       8.064657       8.064657       0              0              0              0.4194353    
     15900   1.0063715      0.42433108    -2.3845756     -0.44440723     0.16902221    -0.0075009849   0.17455657     0.34001105     0.25089621    -0.094583226   -0.035585048    8.0335212      8.0335212      8.0335212      0              0              0              0.42433108   
     16000   1.0036354      0.4287819     -2.4274884     -1.4775991     -0.21362561    -0.20768193    -0.12869705    -0.30449785    -0.14774766     0.07916332     0.063786722    8.0056281      8.0056281      8.0056281      0              0              0              0.4287819    
     16100   1.0548633      0.43351636    -2.5442294     -1.5478638     -0.22780019    -0.083643858   -0.28475281    -0.31500389    -0.024020182    0.12992052     0.12927881     7.9763781      7.9763781      7.9763781      0              0              0              0.43351636   
     16200   1.0289753      0.43834451    -2.5322985     -0.80637886     0.075783426   -0.056020526    0.32409521    -0.040724408    0.21333073     0.024635673    0.031869609    7.9469845      7.9469845      7.9469845      0              0              0              0.43834451   
     16300   0.98093035     0.44297636    -2.4777532     -1.4143726     -0.16134728    -0.13852653     0.015978849   -0.36149414    -0.27604922     0.28261545    -0.02547859     7.919189       7.919189       7.919189       0              0              0              0.44297636   
     16400   1.0550311      0.44778753    -2.6019436     -1.5199978     -0.20056325    -0.070180843   -0.26681695    -0.26469195    -0.083654677   -0.14362345    -0.23102568     7.8907248      7.8907248      7.8907248      0              0              0              0.44778753   
     16500   1.0160446      0.45253256    -2.5625422     -0.80093153     0.10085886    -0.20942548     0.27656083     0.23544123     0.16149341    -0.13740273     0.009901561    7.8630484      7.8630484      7.8630484      0              0              0              0.45253256   
     16600   1.0311316      0.45720767    -2.6218261     -1.0191885      0.026465558    0.23937203     0.16345722    -0.32343257    -0.21064676     0.083976303    0.10199859     7.8361557      7.8361557      7.8361557      0              0              0              0.45720767   
     16700   1.0180522      0.46160263    -2.6360642     -1.0149394      0.042669638    0.24872913     0.069749255   -0.19046947     0.023942072    0.033695521   -0.13173703     7.8112068      7.8112068      7.8112068      0              0              0              0.46160263   
     16800   1.0198774      0.46606393    -2.6933276     -1.1689576      0.0009333945  -0.16725943     0.15244903     0.017610575    0.042269672   -0.13172059    -0.060031867    7.7862031      7.7862031      7.7862031      0              0              0              0.46606393   
     16900   0.98162984     0.47085325    -2.6946293     -0.51150494     0.30735667     0.37252621     0.27540556     0.27413823    -0.27245013    -0.22686461    -0.031614784    7.7597138      7.7597138      7.7597138      0              0              0              0.47085325   
     17000   1.0497102      0.47501229    -2.8280891     -1.2228465      0.016647074    0.24677199    -0.45219201     0.25536124    -0.073501115   -0.21598138    -0.019226409    7.7370003      7.7370003      7.7370003      0              0              0              0.47501229   
     17100   1.0226269      0.47913185    -2.818184      -1.1347662      0.068449295   -0.042199152    0.1188876      0.12865944     0.20967142    -0.079669109   -0.039114038    7.7147623      7.7147623      7.7147623      0              0              0              0.47913185   
     17200   1.0187307      0.48347951    -2.8465869     -2.1087918     -0.34400028    -0.30416846    -0.45704388    -0.2707885      0.15438653    -0.089209569    0.011374592    7.6915678      7.6915678      7.6915678      0              0              0              0.48347951   
     17300   0.99822011     0.48907172    -2.8495983     -2.0266583     -0.29651243    -0.22253676    -0.29183332    -0.3751672      0.12039068     0.039642339    0.15315778     7.6621393      7.6621393      7.6621393      0              0              0              0.48907172   
     17400   1.0205339      0.49460351    -2.8908643     -1.3873995     -0.0088498217  -0.089303304   -0.052518985    0.11527282     0.19237262     0.19753784    -0.017429833    7.6334669      7.6334669      7.6334669      0              0              0              0.49460351   
     17500   0.9888405      0.49958111    -2.8442926     -1.5905274     -0.10086054     0.076247365   -0.46416173     0.085332737   -0.0032276371  -0.28911888     0.019883216    7.6080301      7.6080301      7.6080301      0              0              0              0.49958111   
     17600   0.99221156     0.5044138     -2.8407592     -1.0718497      0.13208017    -0.0065116816   0.42315196    -0.020399763   -0.14444185    -0.012524825    0.21145618     7.5836551      7.5836551      7.5836551      0              0              0              0.5044138    
     17700   1.0262021      0.50918166    -2.8894009     -1.3643181     -0.0030198597   0.019804159    0.057734409   -0.086598147   -0.035855751   -0.150185      -0.19270824     7.5599103      7.5599103      7.5599103      0              0              0              0.50918166   
     17800   1.0091955      0.51405589    -2.8770534     -0.90091908     0.21960002     0.013207719    0.26124692     0.38434541     0.11460717     0.12010563     0.07634015     7.5359403      7.5359403      7.5359403      0              0              0              0.51405589   
     17900   1.0037922      0.5184981     -2.912036      -1.7233441     -0.14587141    -0.14352109    -0.14851823    -0.14557492    -0.094109499    0.1301908      0.1130294      7.5143572      7.5143572      7.5143572      0              0              0              0.5184981    
     18000   1.021159       0.52363771    -3.0179762     -1.5988062     -0.049940634    0.056170217   -0.099791833   -0.10620029     0.09446254    -0.14455716     0.04077721     7.4896914      7.4896914      7.4896914      0              0              0              0.52363771   
     18100   0.93310405     0.52891589    -2.965304      -2.2982362     -0.34888733    -0.15751874    -0.69733609    -0.19180717     0.27762974     0.076172259    0.18797366     7.4646942      7.4646942      7.4646942      0              0              0              0.52891589   
     18200   0.91824745     0.53433525    -2.9764866     -1.9662009     -0.17496986    -0.12161921    -0.35315594    -0.050134425    0.13332276     0.17806397     0.013037068    7.4393722      7.4393722      7.4393722      0              0              0              0.53433525   
     18300   1.0345532      0.5398867     -3.162445      -1.9936558     -0.18419042    -0.017338085   -0.21341538    -0.3218178     -0.16895231    -0.12159602     0.070058615    7.4137855      7.4137855      7.4137855      0              0              0              0.5398867    
     18400   1.0388066      0.54563455    -3.1755981     -1.3932069      0.11506559     0.39085245     0.019857547   -0.065513213   -0.088604675    0.093312069    0.021075227    7.3876607      7.3876607      7.3876607      0              0              0              0.54563455   
     18500   0.97910902     0.55045004    -3.0830936     -1.6082374      0.0067735618  -0.29464858     0.40222742    -0.087258163    0.17617135     0.43444612    -0.20300954     7.3660545      7.3660545      7.3660545      0              0              0              0.55045004   
     18600   1.0228662      0.55487522    -3.1383311     -1.321504       0.14638587     0.40797089    -0.26572993     0.29691666    -0.22124743    -0.20256029     0.17442936     7.3464205      7.3464205      7.3464205      0              0              0              0.55487522   
     18700   1.0343994      0.55925928    -3.1469131     -1.215244       0.19717858     0.136743       0.21508788     0.23970486     0.1687307     -0.12247828     0.032325709    7.3271738      7.3271738      7.3271738      0              0              0              0.55925928   
     18800   1.0825679      0.56371894    -3.2189089     -1.4303506      0.0885683      0.17383893     0.1669528     -0.075086829   -0.041610692   -0.13753725     0.076211907    7.3078005      7.3078005      7.3078005      0              0              0              0.56371894   
     18900   1.0236639      0.56795929    -3.1708093     -0.95398503     0.35575207     0.3912202      0.70670491    -0.030668911    0.16917146    -0.083683087   -0.23042241     7.2895685      7.2895685      7.2895685      0              0              0              0.56795929   
     19000   1.0056508      0.57150427    -3.2168329     -1.1274713      0.30571727    -0.04824022     0.40982992     0.55556211    -0.028806304    0.020521954   -0.020628172    7.2744652      7.2744652      7.2744652      0              0              0              0.57150427   
     19100   0.97409599     0.57505285    -3.242049      -2.5305408     -0.38807185    -0.4677803     -0.53373132    -0.16270393    -0.088730957   -0.20147379     0.085062052    7.259471       7.259471       7.259471       0              0              0              0.57505285   
     19200   0.92714813     0.58001942    -3.2225577     -2.0209898     -0.096072633    0.032948069   -0.27443699    -0.046728979   -0.010462957    0.027344005   -0.30167132     7.2386912      7.2386912      7.2386912      0              0              0              0.58001942   
     19300   0.9137396      0.58564519    -3.2184813     -2.0538891     -0.10603592    -0.23662226     0.0087752752  -0.090260774   -0.048542231    0.12503461    -0.22857685     7.215438       7.215438       7.215438       0              0              0              0.58564519   
     19400   0.96649205     0.59148589    -3.2728786     -3.011414      -0.63505409    -0.9401901     -0.24267146    -0.72230073    -0.066698842   -0.12565447    -0.057098613    7.1916095      7.1916095      7.1916095      0              0              0              0.59148589   
     19500   0.96903015     0.59778871    -3.2151481     -2.0296605     -0.1417248     -0.1372745     -0.45847596     0.17057606    -0.16450605    -0.028764394   -0.15685261     7.1662451      7.1662451      7.1662451      0              0              0              0.59778871   
     19600   0.99976609     0.60376165    -3.1803342     -1.7146197     -0.014510216    0.033006396   -0.19319215     0.11665511     0.15577062     0.072228295   -0.17770321     7.1425351      7.1425351      7.1425351      0              0              0              0.60376165   
     19700   1.0197154      0.60934728    -3.1677638     -1.8340793     -0.10427638     0.057260868    0.025840183   -0.39593019     0.1234837     -0.02224373    -0.2919913      7.1206439      7.1206439      7.1206439      0              0              0              0.60934728   
     19800   1.0203468      0.61506712    -3.1636434     -2.0318108     -0.21864795     0.14166362    -0.34864668    -0.4489608      0.098447972   -0.26164301    -0.18301331     7.0985022      7.0985022      7.0985022      0              0              0              0.61506712   
     19900   0.98453682     0.6211418     -3.1264586     -1.2686282      0.21932469     0.00072178238  0.47297386     0.18427843     0.20208138     0.092750749    0.0058388223   7.0752856      7.0752856      7.0752856      0              0              0              0.6211418    
     20000   1.0031597      0.62671091    -3.1739567     -2.967897      -0.73561963    -0.44998155    -0.69791281    -1.0589645     -0.19314743     0.064620938   -0.1215024      7.0542656      7.0542656      7.0542656      0              0              0              0.62671091   
     20100   1.0660254      0.63308034    -3.2998995     -1.9794739     -0.15574778     0.23914983    -0.3122991     -0.39409406     0.077313244   -0.03176588    -0.22582664     7.0305281      7.0305281      7.0305281      0              0              0              0.63308034   
     20200   1.089518       0.63880778    -3.3887338     -1.8170729     -0.031617921   -0.20896982     0.13997115    -0.025855086   -0.11410877     0.036477611    0.2003626      7.0094535      7.0094535      7.0094535      0              0              0              0.63880778   
     20300   0.98104847     0.6443659     -3.2989314     -2.0647088     -0.13472653    -0.14040421    -0.04596691    -0.21780847    -0.059517506    0.18816798    -0.16482669     6.9892415      6.9892415      6.9892415      0              0              0              0.6443659    
     20400   0.92435121     0.64982852    -3.2675151     -2.1196184     -0.13687602    -0.25119303     0.35030808    -0.50974312     0.47254822     0.089737499    0.4210296      6.9696019      6.9696019      6.9696019      0              0              0              0.64982852   
     20500   0.99733173     0.65579937    -3.4227808     -2.05102       -0.069608224   -0.050368069    0.17969016    -0.33814676    -0.13564902     0.051301823    0.16012936     6.9483853      6.9483853      6.9483853      0              0              0              0.65579937   
     20600   1.024732       0.66192102    -3.4942753     -1.7225579      0.14580612     0.17177071     0.40964303    -0.14399538     0.30904234     0.10996721    -0.089940643    6.9268987      6.9268987      6.9268987      0              0              0              0.66192102   
     20700   1.0244863      0.66730429    -3.5008979     -2.2339527     -0.15900079    -0.23128304     0.15165661    -0.39737594    -0.31112048    -0.018551618    0.036463067    6.9082215      6.9082215      6.9082215      0              0              0              0.66730429   
     20800   1.0594028      0.67257569    -3.5660889     -1.6232254      0.22115806     0.18245494    -0.0043126338   0.48533186    -0.11363642     0.027382242    0.059116263    6.8901261      6.8901261      6.8901261      0              0              0              0.67257569   
     20900   1.0244127      0.6772122     -3.5313157     -1.9210075      0.050096661    0.40157773    -0.46363513     0.21234738     0.065775485   -0.36598211    -0.2234985      6.8743658      6.8743658      6.8743658      0              0              0              0.6772122    
     21000   1.0113143      0.68195642    -3.5310911     -1.8624325      0.098742323    0.30498313    -0.2517549      0.24299874     0.1114933      0.25776564    -0.15129212     6.8583875      6.8583875      6.8583875      0              0              0              0.68195642   
     21100   0.9711224      0.68681226    -3.5023479     -2.110847      -0.036150868   -0.56497083    -0.024784637    0.48130286    -0.23871984     0.10566153     0.19031462     6.8421861      6.8421861      6.8421861      0              0              0              0.68681226   
     21200   1.0872389      0.69256229    -3.7111711     -2.364379      -0.17371477    -0.24412866     0.047918383   -0.32493404    -0.0018603084  -0.12668524     0.29564999     6.8231976      6.8231976      6.8231976      0              0              0              0.69256229   
     21300   1.0234643      0.69826239    -3.6570949     -1.9397435      0.12050165     0.16107507    -0.40338551     0.60381538     0.056486986    0.014992456    0.0071424877   6.8045803      6.8045803      6.8045803      0              0              0              0.69826239   
     21400   1.0198167      0.70365715    -3.6978961     -2.3730668     -0.12617665     0.013879553   -0.32899897    -0.063410552   -0.066461618    0.0088660505  -0.0096232584   6.787146       6.787146       6.787146       0              0              0              0.70365715   
     21500   0.9691388      0.70955994    -3.6695643     -1.8595599      0.23451908     0.22604164     0.82957928    -0.35206368    -0.056771638   -0.14026234    -0.25411601     6.7682729      6.7682729      6.7682729      0              0              0              0.70955994   
     21600   0.98921345     0.71464022    -3.723676      -2.2337785      0.0087682411  -0.39064357     0.038228493    0.3787198      0.14240864    -0.20208251    -0.25604571     6.7521966      6.7521966      6.7521966      0              0              0              0.71464022   
     21700   0.98183012     0.71983527    -3.7346876     -2.8193217     -0.35992776    -0.15127052    -0.52798517    -0.40052759     0.019489402   -0.12195121    -0.25673486     6.7359138      6.7359138      6.7359138      0              0              0              0.71983527   
     21800   0.9207621      0.7255759     -3.6778224     -1.5670879      0.48580407     0.8188302      0.53610843     0.10247358    -0.25894881    -0.029983635    0.14278213     6.7181023      6.7181023      6.7181023      0              0              0              0.7255759    
     21900   1.0394406      0.73030488    -3.927064      -2.8514335     -0.31584661    -0.43361102    -0.40198983    -0.11193898     0.29907378    -0.040580788    0.14202305     6.7035702      6.7035702      6.7035702      0              0              0              0.73030488   
     22000   0.97861704     0.73583799    -3.9451919     -2.8214626     -0.22533806    -0.23713037    -0.37450327    -0.06438055    -0.090587729    0.36332686    -0.25784432     6.6867255      6.6867255      6.6867255      0              0              0              0.73583799   
     22100   0.89621214     0.74205521    -3.8915069     -3.3715507     -0.55157667    -0.53119685    -0.48413743    -0.63939574    -0.011620837   -0.059549548   -0.023579092    6.6679984      6.6679984      6.6679984      0              0              0              0.74205521   
     22200   0.93667119     0.74894647    -3.9684317     -2.8423597     -0.18513257    -0.50123458     0.020016964   -0.074180083    0.25293293     0.0020743292   0.093780666    6.647484       6.647484       6.647484       0              0              0              0.74894647   
     22300   0.99132262     0.75555814    -4.0346733     -2.1592003      0.27194871     0.36569348     0.34380578     0.10634688     0.18386503    -0.11878259     0.61526472     6.6280371      6.6280371      6.6280371      0              0              0              0.75555814   
     22400   0.96790865     0.76104355    -3.9508251     -2.020759       0.33587098     0.32124378     0.14021093     0.54615824    -0.093499527    0.17643033    -0.7720308      6.6120743      6.6120743      6.6120743      0              0              0              0.76104355   
     22500   0.9940903      0.76529732    -3.9280838     -1.8958634      0.38163339     0.057272555   -0.041568765    1.1291964     -0.28937596     0.097239757   -0.15623298     6.5998008      6.5998008      6.5998008      0              0              0              0.76529732   
     22600   1.0845183      0.76941626    -4.0150511     -2.120066       0.19329236    -0.15439589    -0.14534748     0.87962047     0.66761623     0.050095277    0.14599502     6.5880028      6.5880028      6.5880028      0              0              0              0.76941626   
     22700   1.0605375      0.77345781    -3.946208      -1.3934553      0.68197923     0.84855634     0.87105932     0.32632203     0.12477164     0.16437139     0.29729534     6.576508       6.576508       6.576508       0              0              0              0.77345781   
     22800   1.1226523      0.77608919    -4.0269473     -2.1664693      0.13046733     0.43779818     0.24151745    -0.28791366     0.24316826    -0.056506504    0.10096271     6.5690669      6.5690669      6.5690669      0              0              0              0.77608919   
     22900   1.0898943      0.77930518    -4.0282257     -2.2948746      0.075581132    0.41365714    -0.13222985    -0.054683894    0.37640587    -0.29968654     0.37267049     6.5600181      6.5600181      6.5600181      0              0              0              0.77930518   
     23000   1.0055068      0.78315583    -4.0159379     -1.5999283      0.65165024     0.68020954     0.90412947     0.3706117      0.29017356     0.79138501     0.057671203    6.549249       6.549249       6.549249       0              0              0              0.78315583   
     23100   0.9907772      0.78619631    -4.0877307     -2.3318901      0.19805402    -0.1246275      0.28089889     0.43789069     0.38661985     0.11390558    -0.23703111     6.5407953      6.5407953      6.5407953      0              0              0              0.78619631   
     23200   0.98918532     0.78957922    -4.1293653     -2.2224027      0.30908693     0.23547047     0.43897469     0.25281563    -0.29697462    -0.088301059    0.36279322     6.5314407      6.5314407      6.5314407      0              0              0              0.78957922   
     23300   1.0147487      0.79306782    -4.1818433     -2.1920701      0.34264914     0.19565558     0.87577066    -0.04347882    -0.1364245     -0.099544818   -0.048154226    6.5218497      6.5218497      6.5218497      0              0              0              0.79306782   
     23400   1.0246637      0.79638377    -4.2007884     -2.2142071      0.33105726     0.3491808      0.31692988     0.3270611     -0.19137496     0.1287499      0.014338775    6.5127853      6.5127853      6.5127853      0              0              0              0.79638377   
     23500   1.0535697      0.79961914    -4.2466209     -2.3820973      0.21231397     0.59195453    -0.20801887     0.25300625     0.1157359      0.070451214   -0.15279823     6.5039895      6.5039895      6.5039895      0              0              0              0.79961914   
     23600   0.98932536     0.80334063    -4.1740467     -2.1087833      0.42992986     0.74094458     0.27680489     0.27204011    -0.054703109   -0.21612964     0.26056994     6.4939307      6.4939307      6.4939307      0              0              0              0.80334063   
     23700   0.96919581     0.80697061    -4.1821177     -2.1030024      0.46407451     0.2714903      0.3562861      0.76444712     0.31256324    -0.33509408    -0.060793932    6.4841789      6.4841789      6.4841789      0              0              0              0.80697061   
     23800   0.97906989     0.81019871    -4.2512899     -2.2168926      0.42213969     0.11110567     0.68164924     0.47366415     0.22708176    -0.16918657     0.10478162     6.4755557      6.4755557      6.4755557      0              0              0              0.81019871   
     23900   0.98554932     0.8130431     -4.3081016     -2.4852017      0.2601498      0.6249529      0.033730089    0.12176641    -0.49026228     0.029355603   -0.51353758     6.4679954      6.4679954      6.4679954      0              0              0              0.8130431    
     24000   0.98495011     0.81634234    -4.3473878     -2.0347679      0.62530474     0.50611709     1.0894279      0.28036924     0.13232273     0.51514475    -0.22275921     6.4592702      6.4592702      6.4592702      0              0              0              0.81634234   
     24100   0.99267613     0.8196588     -4.4042417     -2.4546335      0.34875668     0.41536851     0.16378001     0.4671215      0.84723506    -0.26977481    -0.1021761      6.4505467      6.4505467      6.4505467      0              0              0              0.8196588    
     24200   0.8920512      0.82344984    -4.3060053     -2.269709       0.52768904     0.57444395     0.20807911     0.80054405     0.47223025     0.090475962    0.0010895393   6.4406324      6.4406324      6.4406324      0              0              0              0.82344984   
     24300   0.94275657     0.82674308    -4.438434      -2.2162892      0.61260207     0.73001057     0.30397876     0.80381686     0.29748319     0.52544851     0.071674675    6.4320691      6.4320691      6.4320691      0              0              0              0.82674308   
     24400   0.91354885     0.8297496     -4.4449806     -2.1295153      0.71810577     1.007894       0.41886592     0.72755742     0.13264743     0.096238077    0.26696085     6.4242911      6.4242911      6.4242911      0              0              0              0.8297496    
     24500   0.87415541     0.83250115    -4.4257908     -1.8943823      0.92841406     0.63762802     0.79386631     1.3537478      0.40235811    -0.46525526    -0.26412012     6.4172055      6.4172055      6.4172055      0              0              0              0.83250115   
     24600   0.8919775      0.83487875    -4.4735931     -2.5071291      0.48209506     0.18122932     0.49195211     0.77310375    -0.34137726    -0.030400235   -0.21390685     6.411108       6.411108       6.411108       0              0              0              0.83487875   
     24700   0.92838404     0.83746154    -4.5021454     -2.4547214      0.50385555     0.18086341     0.96660911     0.36409413    -0.00035067937 -0.23989807    -0.25017321     6.4045104      6.4045104      6.4045104      0              0              0              0.83746154   
     24800   1.0159028      0.84021048    -4.5482894     -2.77926        0.19309146     0.39483782     0.30364583    -0.11920929    -0.76825128     0.28175623     0.047922719    6.3975182      6.3975182      6.3975182      0              0              0              0.84021048   
     24900   1.0351436      0.84273344    -4.4743221     -1.9240678      0.77018357     0.81728817     1.3439026      0.14935992    -0.55888442     0.3061724     -0.15758086     6.3911275      6.3911275      6.3911275      0              0              0              0.84273344   
     25000   1.0187967      0.84417381    -4.3844696     -1.3682953      1.147785       0.81095708     1.6992275      0.93317033     0.45710436     0.32292485    -0.36618802     6.3874905      6.3874905      6.3874905      0              0              0              0.84417381   
     25100   1.0259069      0.84432692    -4.3579351     -0.84692889     1.5196657      1.1702073      1.9181656      1.4706241     -0.2034314      0.1380795      0.0266538      6.3871044      6.3871044      6.3871044      0              0              0              0.84432692   
     25200   1.094729       0.84330484    -4.4567285     -1.8058679      0.7796564      1.4008205      0.49382186     0.44432686    -0.13023129     0.044878531   -0.2613749      6.3896837      6.3896837      6.3896837      0              0              0              0.84330484   
     25300   1.0778883      0.84291892    -4.4708973     -1.4633076      1.071918       0.84891797     0.78212025     1.5847159      0.37835136    -0.33206771     0.60582755     6.3906587      6.3906587      6.3906587      0              0              0              0.84291892   
     25400   1.0369337      0.84203315    -4.4678802     -1.4934538      1.0921958      1.051429       1.8871698      0.33798867    -0.0012588688   0.037897908    0.17861808     6.3928988      6.3928988      6.3928988      0              0              0              0.84203315   
     25500   0.97320828     0.84146988    -4.4299292     -1.7917019      0.90703871     1.82502        0.15210328     0.74399289     0.47154972    -0.16084673     0.35594068     6.3943249      6.3943249      6.3943249      0              0              0              0.84146988   
     25600   0.96258634     0.84116099    -4.4402184     -1.7177645      0.98323598     1.3451756      0.64528129     0.95925102     0.19019649    -0.50085908    -0.072367586    6.3951075      6.3951075      6.3951075      0              0              0              0.84116099   
     25700   0.89220111     0.84162681    -4.3411449     -1.4838825      1.1672999      1.2908149      1.6568332      0.55425148    -0.69722418     0.32856111     0.30292063     6.3939275      6.3939275      6.3939275      0              0              0              0.84162681   
     25800   0.95346265     0.84226023    -4.4101168     -1.6422027      1.0297559      0.38703635     1.5020009      1.2002305      0.49909357    -0.17375673    -0.14927339     6.3923242      6.3923242      6.3923242      0              0              0              0.84226023   
     25900   1.0231282      0.84267509    -4.4725341     -2.1249763      0.62858877     1.1460162      0.56800644     0.17174368     0.02789468     0.11400806     0.26800205     6.3912751      6.3912751      6.3912751      0              0              0              0.84267509   
     26000   1.1214792      0.84357621    -4.5535402     -1.9271652      0.73051201     0.96771461     0.82846345     0.39535798    -0.19165508    -0.59602224     0.017756775    6.3889985      6.3889985      6.3889985      0              0              0              0.84357621   
     26100   1.0206503      0.8443934     -4.3163421     -1.1807004      1.2376667      0.88307337     1.6168183      1.2131083     -0.14168991    -0.0027730392  -0.60999091     6.3869368      6.3869368      6.3869368      0              0              0              0.8443934    
     26200   1.1687362      0.84454525    -4.4174762     -1.2091457      1.1240065      1.3889071      0.95893479     1.0241778      0.16845557     0.4009016     -0.38244411     6.386554       6.386554       6.386554       0              0              0              0.84454525   
     26300   1.0969029      0.84392546    -4.242276      -0.078960341    1.938104       1.9553607      2.1965568      1.6623945     -0.22591014    -0.13727855    -0.018756508    6.388117       6.388117       6.388117       0              0              0              0.84392546   
     26400   1.1334087      0.84209711    -4.3209549     -0.4814214      1.6443255      1.8906246      1.2768268      1.765525       0.26711965     0.11718817     0.21742023     6.3927369      6.3927369      6.3927369      0              0              0              0.84209711   
     26500   1.1608598      0.84000843    -4.467554      -1.5378292      0.91418997     1.4067713      0.51301277     0.8227858      0.20782907    -0.12277112    -0.16082802     6.3980311      6.3980311      6.3980311      0              0              0              0.84000843   
     26600   1.0096038      0.83854808    -4.3402377     -1.3543281      1.127524       1.0468996      1.1056772      1.2299951      0.20105408    -0.015143819   -0.15907322     6.401743       6.401743       6.401743       0              0              0              0.83854808   
     26700   1.0428498      0.83754362    -4.4392259     -1.999871       0.67224419     0.17283021     0.96598122     0.87792115     0.39220246    -0.17422312    -0.31791188     6.4043012      6.4043012      6.4043012      0              0              0              0.83754362   
     26800   0.98586374     0.83781981    -4.3876971     -1.4709664      1.1008412      1.3386973      1.1851749      0.77865144     0.091334309    0.078607492   -0.87903003     6.4035974      6.4035974      6.4035974      0              0              0              0.83781981   
     26900   1.0249436      0.838531      -4.47954       -2.1319747      0.62343785     0.11504288     0.73694512     1.0183255     -0.020660092   -0.11581256     0.21172069     6.4017865      6.4017865      6.4017865      0              0              0              0.838531     
     27000   0.989468       0.84001396    -4.4618487     -1.998308       0.75353814     1.2729889      0.15941705     0.82820845    -0.17368156    -0.27585722     0.05296471     6.398017       6.398017       6.398017       0              0              0              0.84001396   
     27100   0.93552835     0.84202559    -4.4107278     -1.5187676      1.144913       0.96323165     1.8219056      0.64960183    -0.18450329    -0.090639745    0.20998967     6.3929179      6.3929179      6.3929179      0              0              0              0.84202559   
     27200   0.99467196     0.84270111    -4.5169818     -2.0815887      0.72843487     0.94467426     0.38641        0.85422036     0.23750627    -0.054247329   -0.28537078     6.3912093      6.3912093      6.3912093      0              0              0              0.84270111   
     27300   0.89199872     0.84384837    -4.3804384     -1.4850001      1.1998989      1.2499283      1.2075896      1.1421787      0.050537462    0.2575593     -0.15207094     6.3883115      6.3883115      6.3883115      0              0              0              0.84384837   
     27400   1.0303761      0.84535739    -4.5959974     -2.0957771      0.73959854     0.52266182     0.82586381     0.87026998    -0.16395612     0.15646943     0.36042162     6.3845081      6.3845081      6.3845081      0              0              0              0.84535739   
     27500   0.99996189     0.8477226     -4.571615      -2.451797       0.48349083     0.21080473     0.56599351     0.67367425     0.1722665      0.1817619      0.28065696     6.3785648      6.3785648      6.3785648      0              0              0              0.8477226    
     27600   0.95874289     0.84977668    -4.5249713     -1.8200673      0.98418059     1.6750986      0.68866003     0.58878311     0.41974316    -0.032068619   -0.11253774     6.3734213      6.3734213      6.3734213      0              0              0              0.84977668   
[...]
    136000   0.096538489    0.27066344    -3.4607114     -5.0610902     -0.42923839    -0.85780637    -0.2272268     -0.20268198    -0.14020779    -0.019736069   -0.011219599    23.107769      5.930858       5.930858       0              0              0              0.27066344   
    137000   0.095053456    0.2679703     -3.4705617     -5.2606365     -0.47063917    -0.86639259    -0.31771785    -0.22780707    -0.056262257    0.013965865    0.053169673    23.340006      5.930858       5.930858       0              0              0              0.2679703    
    138000   0.10484193     0.26530395    -3.4622311     -5.2222082     -0.46222067    -0.95226625    -0.2167623     -0.21763345    -0.06928198     0.012788188   -0.020226653    23.574577      5.930858       5.930858       0              0              0              0.26530395   
    139000   0.10569812     0.26266413    -3.4405464     -5.2902991     -0.47936375    -1.0894589     -0.18021083    -0.16842156    -0.089980662   -0.012873828   -0.043966068    23.811506      5.930858       5.930858       0              0              0              0.26266413   
    140000   0.102694       0.26005058    -3.4117699     -5.5442236     -0.54036723    -1.1490025     -0.24690087    -0.22519829    -0.097593547   -0.04254268    -0.035040869    24.050815      5.930858       5.930858       0              0              0              0.26005058   
    141000   0.098971659    0.25746303    -3.3814448     -5.5198734     -0.53508864    -1.2183524     -0.18243315    -0.20448036    -0.039834324   -0.022882195   -0.061949082    24.29253       5.930858       5.930858       0              0              0              0.25746303   
    142000   0.094562151    0.25490123    -3.3444821     -5.7322411     -0.58601631    -1.3140779     -0.22949173    -0.21447932    -0.080272944   -0.0042235228   0.030094653    24.536674      5.930858       5.930858       0              0              0              0.25490123   
    143000   0.098257925    0.25236492    -3.2782844     -5.6562752     -0.57920977    -1.3151028     -0.21141233    -0.21111415    -0.088634794   -0.017976173    0.0068701928   24.783272      5.930858       5.930858       0              0              0              0.25236492   
    144000   0.10220213     0.24985385    -3.2319369     -5.729015      -0.60183313    -1.4940032     -0.18083368    -0.13066249    -0.11632433    -0.0070077514  -0.019175147    25.032348      5.930858       5.930858       0              0              0              0.24985385   
    145000   0.11013173     0.24736776    -3.1612918     -6.0324148     -0.68262136    -1.5958786     -0.22213535    -0.22985011    -0.053497093    0.0094157521  -0.074215291    25.283927      5.930858       5.930858       0              0              0              0.24736776   
    146000   0.098446636    0.24490641    -3.0893139     -5.8665887     -0.65105173    -1.686547      -0.093745043   -0.17286315    -0.092458211    0.0046827863   0.0028818603   25.538035      5.930858       5.930858       0              0              0              0.24490641   
    147000   0.091213607    0.24246955    -3.032207      -6.4880207     -0.79176227    -1.8379317     -0.2954213     -0.24193385    -0.07717317     0.01230452    -0.013016238    25.794696      5.930858       5.930858       0              0              0              0.24246955   
    148000   0.095228324    0.24005694    -2.9455744     -6.3740625     -0.77922838    -1.8842598     -0.26827394    -0.18515137    -0.11786523     0.02872952    -0.017215292    26.053937      5.930858       5.930858       0              0              0              0.24005694   
    149000   0.11106902     0.23766833    -2.8665291     -6.6526264     -0.85384893    -2.0005696     -0.30562674    -0.25535049    -0.12304945     0.046033383   -0.043130754    26.315784      5.930858       5.930858       0              0              0              0.23766833   
    150000   0.20682971     0.23530349    -3.0660447     -5.5614187     -0.59982441    -1.3500497     -0.18494847    -0.26447506    -0.11746414     0.010639533   -0.05368988     26.580262      5.930858       5.930858       0              0              0              0.23530349   
    151000   0.099217969    0.23296218    -3.2329256     -5.1916815     -0.44619431    -0.8980179     -0.28809574    -0.15246929    -0.10417628    -0.036750335   -0.022505798    26.847398      5.930858       5.930858       0              0              0              0.23296218   
    152000   0.11027662     0.23064417    -3.3095874     -4.9344664     -0.37520919    -0.84671897    -0.17191039    -0.1069982     -0.11490314     0.0026376391  -0.015634088    27.117218      5.930858       5.930858       0              0              0              0.23064417   
    153000   0.10695455     0.22834922    -3.3357923     -5.0814549     -0.39552       -0.80814633    -0.21528244    -0.16313123    -0.1220525      0.048057082    0.0091861214   27.389751      5.930858       5.930858       0              0              0              0.22834922   
    154000   0.10434691     0.22607711    -3.326661      -5.1449834     -0.40571802    -0.8492868     -0.22393709    -0.14393018    -0.13612813     0.0065239379  -0.0031821252   27.665023      5.930858       5.930858       0              0              0              0.22607711   
    155000   0.1073881      0.22382761    -3.314631      -4.7805362     -0.33089493    -0.72328629    -0.15023089    -0.11916761    -0.039560967    0.069779059    0.020670466    27.943061      5.930858       5.930858       0              0              0              0.22382761   
    156000   0.097969541    0.22160048    -3.2860582     -5.261268      -0.42737253    -0.97735323    -0.15666554    -0.1480988     -0.13489146     0.022304581    0.00019899686  28.223893      5.930858       5.930858       0              0              0              0.22160048   
    157000   0.10765329     0.21939552    -3.2743113     -5.1115443     -0.39848322    -0.92379491    -0.13824492    -0.13340982    -0.068609862    0.045117311   -0.026397051    28.507548      5.930858       5.930858       0              0              0              0.21939552   
    158000   0.10530305     0.2172125     -3.2506353     -5.4118417     -0.45779928    -0.88128731    -0.26055556    -0.23155498    -0.085533128   -0.0064778001  -0.011921802    28.794054      5.930858       5.930858       0              0              0              0.2172125    
    159000   0.11478176     0.2150512     -3.2369629     -4.8720055     -0.35314426    -0.8331491     -0.1409218     -0.085361878   -0.13138103     0.029392995   -0.029362311    29.083439      5.930858       5.930858       0              0              0              0.2150512    
    160000   0.10494613     0.21291141    -3.2327827     -5.1771586     -0.40666234    -0.87084092    -0.20726031    -0.14188577    -0.12852508     0.0015024691   0.020146699    29.375732      5.930858       5.930858       0              0              0              0.21291141   
    161000   0.10461617     0.2107929     -3.2542158     -5.2156526     -0.405791      -0.81319051    -0.23602613    -0.16815635    -0.10293788     0.07071726    -0.023075373    29.670963      5.930858       5.930858       0              0              0              0.2107929    
    162000   0.096488455    0.20869548    -3.2873276     -4.8248604     -0.31902742    -0.73737397    -0.11497156    -0.10473673    -0.16115641     0.0063026605  -0.012282213    29.969161      5.930858       5.930858       0              0              0              0.20869548   
    163000   0.10465689     0.20661892    -3.2772121     -5.2330211     -0.3967101     -0.80174019    -0.13554961    -0.25284049    -0.11195619     0.021008524   -0.039853606    30.270356      5.930858       5.930858       0              0              0              0.20661892   
    164000   0.10211327     0.20456303    -3.2602437     -5.1194678     -0.37409522    -0.84662098    -0.15139991    -0.12426476    -0.12179693    -0.008100762   -0.001132377    30.574578      5.930858       5.930858       0              0              0              0.20456303   
    165000   0.10733403     0.20252759    -3.2239802     -5.5673068     -0.46093856    -0.95084884    -0.22080739    -0.21115944    -0.11832253     0.0091038305   0.018015152    30.881858      5.930858       5.930858       0              0              0              0.20252759   
    166000   0.093850467    0.20051241    -3.1980608     -5.3936377     -0.42575141    -0.98934619    -0.18578889    -0.10211917    -0.148419       0.037614961   -0.044451702    31.192226      5.930858       5.930858       0              0              0              0.20051241   
    167000   0.10034435     0.19851728    -3.1390596     -5.2927956     -0.4157132     -1.0359834     -0.076615133   -0.13454109    -0.12343619    -0.031366268   -0.021497326    31.505713      5.930858       5.930858       0              0              0              0.19851728   
    168000   0.09154164     0.196542      -3.1016833     -5.4723885     -0.44799623    -1.0498799     -0.13906458    -0.15504419    -0.1327583      0.0063579683  -0.027006332    31.822351      5.930858       5.930858       0              0              0              0.196542     
    169000   0.10117909     0.19458637    -3.0461326     -5.4831263     -0.45780928    -1.1425476     -0.15269271    -0.078187501   -0.1807422     -0.0098344523  -0.023055848    32.142171      5.930858       5.930858       0              0              0              0.19458637   
    170000   0.10111018     0.19265021    -3.052113      -5.4113017     -0.4396095     -1.0895441     -0.093094439   -0.13619       -0.15220787     0.0042811631  -0.05788234     32.465205      5.930858       5.930858       0              0              0              0.19265021   
    171000   0.11356265     0.1907333     -3.0205313     -5.3520794     -0.43366517    -1.0935725     -0.14544579    -0.061977247   -0.13829027    -0.034820282   -0.026111139    32.791486      5.930858       5.930858       0              0              0              0.1907333    
    172000   0.10480384     0.18883548    -3.0170356     -5.8221841     -0.50840832    -1.2086932     -0.16760443    -0.14892734    -0.14438732    -0.075010206   -0.05098756     33.121045      5.930858       5.930858       0              0              0              0.18883548   
    173000   0.098511957    0.18695653    -2.9537445     -5.6840261     -0.48902911    -1.2214246     -0.12716919    -0.11849353    -0.15727474    -0.051875391   -0.010189849    33.453917      5.930858       5.930858       0              0              0              0.18695653   
    174000   0.10149389     0.18509628    -2.9021537     -5.9148164     -0.53242817    -1.2752747     -0.17521001    -0.14679983    -0.15067809    -0.020658482   -0.039529784    33.790135      5.930858       5.930858       0              0              0              0.18509628   
    175000   0.1082073      0.18325454    -2.843194      -6.0713441     -0.5646988     -1.3533622     -0.16218005    -0.17855415    -0.15115897    -0.025716992   -0.03729793     34.129731      5.930858       5.930858       0              0              0              0.18325454   
    176000   0.10931778     0.18143113    -2.8353204     -6.0149659     -0.55135309    -1.3030568     -0.1416388     -0.20936369    -0.13989735    -0.03620355    -0.019982348    34.472741      5.930858       5.930858       0              0              0              0.18143113   
    177000   0.11066487     0.17962586    -2.83248       -5.6638427     -0.48932209    -1.2582615     -0.09452141    -0.11518336    -0.18325254    -0.021795088   -0.016867694    34.819198      5.930858       5.930858       0              0              0              0.17962586   
    178000   0.10806813     0.17783855    -2.8627152     -5.6144344     -0.47095059    -1.1667639     -0.12653433    -0.11955353    -0.20187176     0.0049783292  -0.001599673    35.169137      5.930858       5.930858       0              0              0              0.17783855   
    179000   0.10807018     0.17606903    -2.8434909     -5.6669169     -0.47774262    -1.1892124     -0.083710062   -0.16030545    -0.16642947     0.0047730328   0.010746691    35.522592      5.930858       5.930858       0              0              0              0.17606903   
    180000   0.11112419     0.17431712    -2.8960644     -5.4761053     -0.43514208    -1.0806151     -0.12526943    -0.099541761   -0.14597564    -0.0085429147  -0.019736022    35.8796        5.930858       5.930858       0              0              0              0.17431712   
    181000   0.098032311    0.17258263    -2.8738907     -5.8386673     -0.48810915    -1.2268081     -0.096579799   -0.14093958    -0.1757464     -0.020230352   -0.025354519    36.240196      5.930858       5.930858       0              0              0              0.17258263   
    182000   0.11152238     0.17086541    -2.8673955     -5.7655633     -0.47603334    -1.2472705     -0.054226799   -0.12660273    -0.18235795    -0.059516041   -0.017971872    36.604416      5.930858       5.930858       0              0              0              0.17086541   
    183000   0.11128297     0.16916527    -2.8508556     -5.5600455     -0.44217952    -1.2031593     -0.048865755   -0.074513514   -0.16104862    -0.0049110213  -0.029266323    36.972297      5.930858       5.930858       0              0              0              0.16916527   
    184000   0.11620132     0.16748204    -2.8577371     -5.849951      -0.48198962    -1.154395      -0.12789539    -0.16367848    -0.15814325    -0.034465122   -0.0073573208   37.343874      5.930858       5.930858       0              0              0              0.16748204   
    185000   0.10009626     0.16581557    -2.8588279     -5.5552961     -0.42898928    -1.1126395     -0.063181477   -0.11114689    -0.15061108     0.0095057659  -0.0059845248   37.719187      5.930858       5.930858       0              0              0              0.16581557   
    186000   0.097001326    0.16416568    -2.8292538     -5.9584111     -0.48860658    -1.2367448     -0.11046636    -0.1186086     -0.17132472    -0.063809759   -0.030098911    38.098271      5.930858       5.930858       0              0              0              0.16416568   
    187000   0.10049467     0.1625322     -2.8400357     -5.639866      -0.43585501    -1.1218817     -0.086682124   -0.099001171   -0.12635433    -0.0036019017   0.011890427    38.481165      5.930858       5.930858       0              0              0              0.1625322    
    188000   0.11056694     0.16091498    -2.8263241     -5.8172333     -0.4616695     -1.1652574     -0.066547392   -0.1532037     -0.11365418     0.039056698   -0.016118948    38.867907      5.930858       5.930858       0              0              0              0.16091498   
    189000   0.10737961     0.15931385    -2.841395      -5.756761      -0.44544586    -1.1811719     -0.028501826   -0.12666389    -0.15860739     0.023701344    0.015522341    39.258536      5.930858       5.930858       0              0              0              0.15931385   
    190000   0.10176119     0.15772865    -2.7777873     -5.8366098     -0.46038141    -1.2211084     -0.049608082   -0.11042769    -0.13907012    -0.029279655   -0.02638504     39.653091      5.930858       5.930858       0              0              0              0.15772865   
    191000   0.10375685     0.15615922    -2.7153397     -5.8887837     -0.47249537    -1.2687303     -0.049863251   -0.098892562   -0.13566536     0.018195653   -0.0060873812   40.051611      5.930858       5.930858       0              0              0              0.15615922   
    192000   0.11239978     0.15460541    -2.683598      -6.1032751     -0.50421515    -1.2815751     -0.067500573   -0.16356982    -0.12032195     0.046839165   -0.047839853    40.454136      5.930858       5.930858       0              0              0              0.15460541   
    193000   0.19287248     0.15306706    -3.2921483     -4.0080885     -0.13968099    -0.32878357    -0.039784283   -0.050475107   -0.065354868    0.027820291   -0.016821671    40.860707      5.930858       5.930858       0              0              0              0.15306706   
    194000   0.091631259    0.15154402    -3.5254635     -3.3991005     -0.0014323297   0.0075567359  -0.035178103    0.023324378   -0.0130004     -0.018545547    0.017458942    41.271364      5.930858       5.930858       0              0              0              0.15154402   
    195000   0.10252857     0.15003613    -3.5708637     -3.5024587     -0.011541708   -0.0063649089  -0.025378506   -0.0028817103   0.013104362   -0.016224557   -0.0020445708   41.686148      5.930858       5.930858       0              0              0              0.15003613   
    196000   0.093052085    0.14854325    -3.6233208     -3.4246005      0.0080807633   0.06872254    -0.058717158    0.014236908   -0.020517008    0.00025719628  0.019189867    42.105101      5.930858       5.930858       0              0              0              0.14854325   
    197000   0.09973299     0.14706522    -3.6762283     -3.808689      -0.037610223   -0.0051194995  -0.059040351   -0.048670819    0.01649862     0.033214741   -0.013527929    42.528264      5.930858       5.930858       0              0              0              0.14706522   
    198000   0.1164513      0.14560189    -3.6965143     -3.6321669     -0.014488214    0.015976468   -0.032596399   -0.026844712   -0.021867889   -0.027477753    0.00079705592  42.95568       5.930858       5.930858       0              0              0              0.14560189   
    199000   0.10383051     0.14415313    -3.7493433     -3.6719762     -0.010169344    0.020544207   -0.061560232    0.010507993    0.0065054363   0.016476789    0.0045693371   43.387392      5.930858       5.930858       0              0              0              0.14415313   
    200000   0.10233814     0.14271878    -3.8101379     -3.7361507     -0.010217691    0.056015009   -0.047530807   -0.039137275   -0.0019007292  -0.003320815   -0.013225552    43.823443      5.930858       5.930858       0              0              0              0.14271878   
Loop time of 39.6046 on 1 procs for 200000 steps with 200 atoms

Performance: 872626.510 tau/day, 5049.922 timesteps/s
49.9% CPU use with 1 MPI tasks x 1 OpenMP threads

MPI task timing breakdown:
Section |  min time  |  avg time  |  max time  |%varavg| %total
---------------------------------------------------------------
Pair    | 27.672     | 27.672     | 27.672     |   0.0 | 69.87
Bond    | 0.90249    | 0.90249    | 0.90249    |   0.0 |  2.28
Neigh   | 0.35776    | 0.35776    | 0.35776    |   0.0 |  0.90
Comm    | 1.5628     | 1.5628     | 1.5628     |   0.0 |  3.95
Output  | 1.2259     | 1.2259     | 1.2259     |   0.0 |  3.10
Modify  | 7.4315     | 7.4315     | 7.4315     |   0.0 | 18.76
Other   |            | 0.4522     |            |       |  1.14

Nlocal:            200 ave         200 max         200 min
Histogram: 1 0 0 0 0 0 0 0 0 0
Nghost:            785 ave         785 max         785 min
Histogram: 1 0 0 0 0 0 0 0 0 0
Neighs:           6766 ave        6766 max        6766 min
Histogram: 1 0 0 0 0 0 0 0 0 0

Total # of neighbors = 6766
Ave neighs/atom = 33.83
Ave special neighs/atom = 7.86
Neighbor list builds = 517
Dangerous builds = 0
System init for write_data ...
Generated 0 of 1 mixed pair_coeff terms from geometric mixing rule
WARNING: Not all mixed pair coeffs generated from mixing. Use write_data with 'pair ij' option to store all pair coeffs. (src/write_data.cpp:309)
Total wall time: 0:00:39
0.75625
