LAMMPS (23 Jun 2022)
OMP_NUM_THREADS environment is not set. Defaulting to 1 thread. (src/comm.cpp:98)
  using 1 OpenMP thread(s) per MPI task
Reading data file ...
  orthogonal box = (96.867597 96.867597 96.867597) to (103.1324 103.1324 103.1324)
  1 by 1 by 1 MPI processor grid
  reading atoms ...
  200 atoms
  scanning bonds ...
  4 = max bonds/atom
  reading bonds ...
  201 bonds
Finding 1-2 1-3 1-4 neighbors ...
  special bond factors lj:    0        0        0       
  special bond factors coul:  0        0        0       
     4 = max # of 1-2 neighbors
     4 = max # of 1-3 neighbors
    10 = max # of 1-4 neighbors
    12 = max # of special neighbors
  special bonds CPU = 0.000 seconds
  read_data CPU = 0.004 seconds
Finding 1-2 1-3 1-4 neighbors ...
  special bond factors lj:    0        1        1       
  special bond factors coul:  0        0        0       
     4 = max # of 1-2 neighbors
     4 = max # of 1-3 neighbors
    10 = max # of 1-4 neighbors
    12 = max # of special neighbors
  special bonds CPU = 0.000 seconds
Generated 0 of 1 mixed pair_coeff terms from geometric mixing rule
Neighbor list info ...
  update every 1 steps, delay 0 steps, check yes
  max neighbors/atom: 2000, page size: 100000
  master list distance cutoff = 5.5
  ghost atom cutoff = 5.5
  binsize = 2.75, bins = 3 3 3
  1 neighbor lists, perpetual/occasional/extra = 1 0 0
  (1) pair lj/cut, perpetual
      attributes: half, newton on
      pair build: half/bin/newton
      stencil: half/bin/3d
      bin: standard
Setting up Verlet run ...
  Unit style    : lj
  Current step  : 0
  Time step     : 0.002
WARNING: Inconsistent image flags (src/domain.cpp:819)
Per MPI rank memory allocation (min/avg/max) = 8.742 | 8.742 | 8.742 Mbytes
   Step          Temp         Density         PotEng        Enthalpy        Press           Pxx            Pyy            Pzz            Pxy            Pxz            Pyz             Lx             Ly             Lz             Xy             Yz             Xz          Density    
         0   1.5            0.89474613    -4.1212008      1.3074095      2.5946501      2.663287       2.8474019      2.2732615      0.044449033   -0.28669114     0.21299274     6.2648059      6.2648059      6.2648059      0              0              0              0.89474613   
      1000   1.4597885      0.77467129    -2.9226183     -0.40961126     0.23541039     1.4182142     -0.19970864    -0.51227438    -0.00099860441 -0.080301941   -0.23344064     6.5730722      6.5730722      6.5730722      0              0              0              0.77467129   
      2000   1.4891319      0.75784543    -2.8372666     -0.10583112     0.35061101     0.4490014      0.97730829    -0.37447668    -0.37515717    -0.25975011    -0.21787106     6.6213622      6.6213622      6.6213622      0              0              0              0.75784543   
      3000   1.4603133      0.78399844    -2.5439431      1.2362547      1.1408461      0.62364449     1.8152388      0.98365497     0.70186609    -0.10466688    -1.1143293      6.5469018      6.5469018      6.5469018      0              0              0              0.78399844   
      4000   1.5329956      0.77194038    -2.992344       0.023766339    0.51096452     0.38385876     0.41383166     0.73520315    -0.0062432842   0.10459579    -0.087385553    6.5808144      6.5808144      6.5808144      0              0              0              0.77194038   
      5000   1.4656122      0.76205778    -2.8697598      0.9445678      1.1270844      1.125931       0.93855598     1.3167661     -0.4128654     -1.0458132     -0.17043712     6.6091396      6.6091396      6.6091396      0              0              0              0.76205778   
      6000   1.3218587      0.80207244    -3.0300198     -0.45060507     0.44226318     0.85497704     1.0640389     -0.59222639     0.028078175    0.53951248     0.12988774     6.4973515      6.4973515      6.4973515      0              0              0              0.80207244   
      7000   1.46655        0.79917262    -3.1381562     -0.011703994    0.68120484     0.54915649     1.2875222      0.20693585    -0.29457921    -0.14789831    -0.11807129     6.5052006      6.5052006      6.5052006      0              0              0              0.79917262   
      8000   1.5488718      0.79001251    -3.0135325      0.62954552     0.95619301     1.8801178      0.57915284     0.40930835     0.17666879     0.25909244     0.54652413     6.5302464      6.5302464      6.5302464      0              0              0              0.79001251   
      9000   1.4502361      0.80055713    -2.9744201      1.0984051      1.3888559      1.5529746      0.79555743     1.8180356     -0.14456897     0.21267308     0.29936801     6.5014483      6.5014483      6.5014483      0              0              0              0.80055713   
     10000   1.4864829      0.8016025     -3.2525614      0.16373426     0.87281389     0.62858902     1.0034068      0.98644589     0.042731263   -0.024367813   -0.010139397    6.4986209      6.4986209      6.4986209      0              0              0              0.8016025    
     11000   1.4296198      0.80216036    -3.158043      -0.055326966    0.70663651     0.23285404     0.39497341     1.4920821      0.51464007     0.1799098     -0.2728132      6.4971141      6.4971141      6.4971141      0              0              0              0.80216036   
     12000   1.3152361      0.81680435    -3.3389081     -0.0064867745   1.0168706      1.4021996      1.5549121      0.093499978   -0.17133913     0.34370704     0.161762       6.4580521      6.4580521      6.4580521      0              0              0              0.81680435   
     13000   1.3473795      0.78933042    -3.0817117     -0.31087857     0.54526169     0.11767055     1.1475412      0.37057337     0.47436561     0.61203742     0.1545955      6.5321269      6.5321269      6.5321269      0              0              0              0.78933042   
     14000   1.3726292      0.76716082    -2.9596908      0.074644588    0.6874363      0.62903105     0.71214496     0.72113289    -0.35464368    -0.082052753    0.14868138     6.5944527      6.5944527      6.5944527      0              0              0              0.76716082   
     15000   1.3878609      0.81936768    -3.2013593      0.086154678    0.90587182     0.23458625     1.2110708      1.2719584      0.015406258   -0.10446439    -0.22426158     6.4513106      6.4513106      6.4513106      0              0              0              0.81936768   
     16000   1.373018       0.80375162    -3.0170149      0.93025324     1.3868653      1.1891212      1.9091825      1.0622921      0.53772005    -0.48671303    -0.2079514      6.4928236      6.4928236      6.4928236      0              0              0              0.80375162   
     17000   1.2975443      0.80662625    -3.2148306     -0.37656255     0.66120124     0.37442297     0.97401158     0.63516917     0.72247507    -0.12697436    -0.85104002     6.4851015      6.4851015      6.4851015      0              0              0              0.80662625   
     18000   1.4340773      0.79601305    -3.044222       1.5759142      1.7944854      1.5241331      0.90621446     2.9531088     -0.12287477     0.21926743     0.19508758     6.5137962      6.5137962      6.5137962      0              0              0              0.79601305   
     19000   1.4606477      0.81476031    -3.3421192      0.69298667     1.3740482      0.34543314     1.8144398      1.9622717      0.059485162    0.052416997   -0.41332099     6.4634482      6.4634482      6.4634482      0              0              0              0.81476031   
     20000   1.3421344      0.84464707    -3.5298766      0.85004415     1.8250405      1.4823902      1.6500045      2.3427269     -0.33393553     0.26882058    -0.26388266     6.3862973      6.3862973      6.3862973      0              0              0              0.84464707   
     21000   1.2660002      0.77256298    -3.0470063      0.46144362     1.1370333      1.3145185      0.66863396     1.4279475     -0.022508269   -0.79407176     0.60600491     6.5790461      6.5790461      6.5790461      0              0              0              0.77256298   
     22000   1.224169       0.79574977    -3.0776395     -0.77992461     0.34046713    -0.35000453     0.45089145     0.92051448    -0.053047906    0.11659956    -0.15089328     6.5145145      6.5145145      6.5145145      0              0              0              0.79574977   
     23000   1.198421       0.82836834    -3.5071487     -0.71330576     0.75697776     0.90921121     0.47933973     0.88238235     0.13164119    -0.29519642     0.16649115     6.4278598      6.4278598      6.4278598      0              0              0              0.82836834   
     24000   1.3648614      0.8237981     -3.3686148      0.5786722      1.4305863      1.7442446      1.0066328      1.5408815      0.13812223    -0.061122422   -0.12436199     6.4397247      6.4397247      6.4397247      0              0              0              0.8237981    
     25000   1.3941455      0.82694246    -3.3951902      0.056876445    1.0308999      2.2843577      0.15425558     0.6540866      0.0052591772   0.21032287     0.33305922     6.4315522      6.4315522      6.4315522      0              0              0              0.82694246   
     26000   1.2069846      0.82736415    -3.4227758     -1.2379501      0.28837486     0.57610997     0.097196895    0.1918177      0.12231903     0.32916636     0.35975195     6.4304593      6.4304593      6.4304593      0              0              0              0.82736415   
     27000   1.1739692      0.82605381    -3.4036741     -1.2009072      0.3383951     -0.049855286    1.3968473     -0.33180669     0.24460686     0.90794391    -0.079258002    6.4338576      6.4338576      6.4338576      0              0              0              0.82605381   
     28000   1.162792       0.82170802    -3.2059054     -0.051943753    1.0596258      1.2479901      1.0451608      0.88572646    -0.42762412    -0.4778853      0.40692663     6.44518        6.44518        6.44518        0              0              0              0.82170802   
     29000   1.2056802      0.83177541    -3.4855128     -0.93528001     0.56769054     0.63230484    -0.053458186    1.124225       0.29093859     0.75192367    -0.17784297     6.4190713      6.4190713      6.4190713      0              0              0              0.83177541   
     30000   1.1755315      0.85196666    -3.3934973      0.3324107      1.5269002      1.3771015      1.5556589      1.6479403     -0.17327066    -0.072417133    0.12309168     6.3679556      6.3679556      6.3679556      0              0              0              0.85196666   
     31000   1.1949436      0.84285333    -3.6125275     -0.79042384     0.7958453      1.0276686      0.71973548     0.64013177    -0.24593162    -0.61949107    -0.38227578     6.3908245      6.3908245      6.3908245      0              0              0              0.84285333   
     32000   1.1300571      0.84029384    -3.7295936     -1.2229261      0.62644452     0.48839986     0.85104413     0.53988958     0.1652059      0.076770377   -0.022095454    6.3973066      6.3973066      6.3973066      0              0              0              0.84029384   
     33000   1.285689       0.85913844    -3.7096301      0.36497416     1.6836875      2.0988619      0.96521755     1.986983      -0.087144708   -0.20542107     0.14762819     6.3501869      6.3501869      6.3501869      0              0              0              0.85913844   
     34000   1.1606961      0.82999995    -3.4681026     -1.4556254      0.21137709     0.45808064     0.30995925    -0.13390862     0.10717486     0.061068537    0.38713163     6.4236451      6.4236451      6.4236451      0              0              0              0.82999995   
     35000   1.1643872      0.87235242    -3.8132203     -0.87121587     0.9549536      1.4789937      0.36563721     1.0202299      0.33210346     0.38998387    -0.89194964     6.3179605      6.3179605      6.3179605      0              0              0              0.87235242   
     36000   1.1042691      0.82642632    -3.3923548     -0.87179247     0.65546177     0.9084416      0.5981427      0.45980101     0.30252749     0.11800045    -0.022001561    6.4328908      6.4328908      6.4328908      0              0              0              0.82642632   
     37000   1.0704447      0.83454119    -3.3532407      0.0018200067   1.33331        1.1469185      1.4797559      1.3732556      0.16501783     0.15215518    -0.079386087    6.4119723      6.4119723      6.4119723      0              0              0              0.83454119   
     38000   1.0960071      0.86114627    -3.5722908     -0.33173828     1.2563043      1.0984966      0.87576539     1.7946508     -0.15251483     0.90443762    -0.40545877     6.3452478      6.3452478      6.3452478      0              0              0              0.86114627   
     39000   1.0939073      0.8345433     -3.7377995     -1.9602756      0.10990727    -0.088931425    0.022767839    0.39588538    -0.4669468      0.33985855    -0.48766351     6.4119669      6.4119669      6.4119669      0              0              0              0.8345433    
     40000   1.1119694      0.85063739    -3.6493825     -0.40815811     1.2230697      1.2041525      1.6439037      0.82115284     0.17932778     0.92355035    -0.010264805    6.3712709      6.3712709      6.3712709      0              0              0              0.85063739   
     41000   1.1142885      0.8554014     -3.4954015     -0.6350846      0.9310199      0.6789113      0.90621357     1.2079348      0.50293319     0.12086407    -0.37255977     6.359421       6.359421       6.359421       0              0              0              0.8554014    
     42000   1.0865605      0.86862285    -3.6590989      0.40361835     1.9275733      1.8412172      1.5812299      2.3602729     -0.13975314     0.40971525     0.22357524     6.3269899      6.3269899      6.3269899      0              0              0              0.86862285   
     43000   1.0891628      0.853388      -3.8453126     -0.87390128     1.0441092      0.34420734     1.6969379      1.0911824      0.37832555     0.20541048    -0.45841598     6.3644183      6.3644183      6.3644183      0              0              0              0.853388     
     44000   1.0186108      0.85283618    -3.8175925     -1.0971977      0.93045831     0.80109056     0.72198852     1.2682959      0.57220787     0.06865555    -0.33349045     6.3657907      6.3657907      6.3657907      0              0              0              0.85283618   
     45000   1.0056601      0.86037036    -3.5546268      0.14513156     1.7198105      2.280323       1.4601288      1.4189797     -0.23766384     0.16223614     0.57516866     6.3471547      6.3471547      6.3471547      0              0              0              0.86037036   
     46000   1.0566308      0.85820802    -3.784959      -1.0975682      0.86629807     0.78129843     0.89214476     0.92545103    -0.24813882    -0.074766386    0.28039228     6.3524809      6.3524809      6.3524809      0              0              0              0.85820802   
     47000   1.0817579      0.90406477    -4.049494      -0.56026543     1.540777       1.3411471      1.3494948      1.931689       0.24349122    -0.56684658     0.36560663     6.2432067      6.2432067      6.2432067      0              0              0              0.90406477   
     48000   1.0082729      0.87480435    -3.9468941     -1.7779957      0.52810434     0.6865665      0.62855994     0.26918658    -0.037678492    0.35559283     0.22367642     6.3120522      6.3120522      6.3120522      0              0              0              0.87480435   
     49000   0.87882679     0.87466517    -3.8496136     -1.3304614      0.9601464      0.81967435     0.63301835     1.4277465     -0.20671072    -0.31388801    -0.18738367     6.312387       6.312387       6.312387       0              0              0              0.87466517   
     50000   0.93172915     0.86628715    -3.7683259     -0.8280617      1.2204083      0.94432564     1.3102277      1.4066716     -0.17654979    -0.43412498     0.26445421     6.3326712      6.3326712      6.3326712      0              0              0              0.86628715   
     51000   1.0249779      0.87977316    -3.7765641     -0.38815177     1.486523       1.344326       1.8156914      1.2995516      1.299595      -0.24290747    -0.087087141    6.3001466      6.3001466      6.3001466      0              0              0              0.87977316   
     52000   0.9580449      0.89472888    -3.9956718     -0.97214978     1.2962507      1.8740507      0.90538238     1.1093189      0.40449383    -0.63997999    -0.10959397     6.2648461      6.2648461      6.2648461      0              0              0              0.89472888   
     53000   0.92974623     0.88029564    -4.0411097     -1.5604905      0.87467207     0.98022194     0.88863221     0.75516207     0.28088504    -0.13914624     0.1935443      6.2989         6.2989         6.2989         0              0              0              0.88029564   
     54000   0.98802688     0.89463822    -4.0128253     -0.72819717     1.4720849      1.5042345      1.4417208      1.4702994      0.22986127    -0.3495909     -0.36871119     6.2650577      6.2650577      6.2650577      0              0              0              0.89463822   
     55000   1.0832861      0.90585802    -4.0844687     -1.0463652      1.1704501      0.87462952     0.7471848      1.889536       0.067097767   -0.44687682     0.25795717     6.2390842      6.2390842      6.2390842      0              0              0              0.90585802   
     56000   0.91407107     0.88237227    -4.0818964     -1.8630942      0.68548379    -0.019440718    0.6337053      1.4421868     -0.052598257   -0.198178       0.11335122     6.2939547      6.2939547      6.2939547      0              0              0              0.88237227   
     57000   0.87223805     0.87452422    -3.9467076     -1.6243007      0.81139282     0.98716082     0.47686022     0.97015741     0.34866606    -0.11054619    -0.069019089    6.3127261      6.3127261      6.3127261      0              0              0              0.87452422   
     58000   0.86671315     0.87575172    -3.9134856     -1.1370558      1.1805615      1.0827786      0.99547467     1.4634311     -0.28419551     0.22329086    -0.51884199     6.3097753      6.3097753      6.3097753      0              0              0              0.87575172   
     59000   0.91691818     0.89705716    -4.2166368     -1.7707425      0.87862168     0.57765094     0.8607635      1.1974506     -0.079851248    0.098643715   -0.16697473     6.2594214      6.2594214      6.2594214      0              0              0              0.89705716   
     60000   0.95876298     0.90856897    -4.210599      -1.4959669      1.0602822      1.3880676      0.37455804     1.4182208     -0.15952558     0.3961125     -0.49235902     6.2328727      6.2328727      6.2328727      0              0              0              0.90856897   
     61000   0.95215498     0.90842961    -4.1429644     -0.50133885     1.8338174      1.2867338      2.4892879      1.7254304     -0.26612309     0.23587364     0.40576496     6.2331914      6.2331914      6.2331914      0              0              0              0.90842961   
     62000   0.83935352     0.90755456    -4.1063012     -0.48124915     1.9572791      1.3445225      2.6154666      1.9118483     -0.2151651     -0.24708285    -0.12414354     6.2351941      6.2351941      6.2351941      0              0              0              0.90755456   
     63000   0.85471515     0.89484634    -4.2100982     -1.8389701      0.89115772     0.79077334     0.906837       0.97586283    -0.29792864     0.187574      -0.28192529     6.264572       6.264572       6.264572       0              0              0              0.89484634   
     64000   0.86151483     0.91847306    -4.2705158     -1.2896448      1.4153337      1.2440639      1.5742344      1.4277027      0.22053346    -0.5291672     -0.031894881    6.2103883      6.2103883      6.2103883      0              0              0              0.91847306   
     65000   0.8330767      0.91130743    -4.1244512     -0.90426394     1.6377191      2.05302        1.4862773      1.3738599      0.6201975     -0.025615276   -0.39049805     6.2266233      6.2266233      6.2266233      0              0              0              0.91130743   
     66000   0.79329364     0.9214371     -4.3257992     -2.1133778      0.86148562     1.0628195      0.84675431     0.67488303     0.30309683    -1.2012409     -0.073732715    6.203722       6.203722       6.203722       0              0              0              0.9214371    
     67000   0.82446729     0.91391598    -4.2169341     -1.4512901      1.2754334      1.4794496      1.7028285      0.64402205    -0.36160496     0.0083501753  -0.36488786     6.2206935      6.2206935      6.2206935      0              0              0              0.91391598   
     68000   0.91634492     0.92337895    -4.2748065     -1.1351226      1.4875124      2.2704818      1.502419       0.68963627     0.51988152    -0.26714937     0.71909801     6.1993702      6.1993702      6.1993702      0              0              0              0.92337895   
     69000   0.7961204      0.91980097    -4.2760355     -2.0029241      0.907176       0.57199673     1.0040815      1.1454498     -0.12613856    -0.28156868    -0.04077313     6.2073982      6.2073982      6.2073982      0              0              0              0.91980097   
     70000   0.79818663     0.90450983    -4.3700578     -2.6869663      0.40439645     0.13998373     0.77952134     0.29368428    -0.27897977    -0.41298        0.034452112    6.2421825      6.2421825      6.2421825      0              0              0              0.90450983   
     71000   0.75013306     0.92598302    -4.4217114     -2.2023098      0.92583826     1.1681442      0.30897249     1.3003981      0.02353597    -0.34222173     0.5298868      6.1935534      6.1935534      6.1935534      0              0              0              0.92598302   
     72000   0.78386841     0.92371449    -4.351065      -1.7707989      1.1843216      0.82966669     0.77366871     1.9496295      0.20133663    -0.096091529    0.084351425    6.1986195      6.1986195      6.1986195      0              0              0              0.92371449   
     73000   0.77830649     0.94620805    -4.4542143     -1.6987642      1.3709933      1.5589547      1.4059022      1.1481229     -0.25958231    -0.33385331     0.10022267     6.1491065      6.1491065      6.1491065      0              0              0              0.94620805   
     74000   0.74338248     0.9376955     -4.4801206     -1.5888204      1.5188978      0.81580219     2.3438351      1.397056       0.10456619     0.043127219   -0.62132925     6.167658       6.167658       6.167658       0              0              0              0.9376955    
     75000   0.74249517     0.94566818    -4.6294981     -2.1220752      1.2029319      1.0452882      1.6069788      0.95652868     0.31582732     0.13367493    -0.41199133     6.1502764      6.1502764      6.1502764      0              0              0              0.94566818   
     76000   0.63822164     0.93117855    -4.582877      -2.7193363      0.77118083    -0.077296691    1.4629793      0.92785993     0.72881384     0.12869496    -0.22419407     6.1820129      6.1820129      6.1820129      0              0              0              0.93117855   
     77000   0.72166307     0.94430863    -4.6516419     -2.170912       1.2049788      0.94659197     0.83269425     1.8356501     -0.29980058     0.14274163     0.22652496     6.1532266      6.1532266      6.1532266      0              0              0              0.94430863   
     78000   0.68536161     0.94107047    -4.5104241     -1.7438671      1.4917291      2.1856329      1.1767925      1.1127619     -0.2090206      0.17471312     0.43972256     6.1602761      6.1602761      6.1602761      0              0              0              0.94107047   
     79000   0.72689052     0.96473119    -4.7812255     -2.2795877      1.2425331      1.2390114      1.6577428      0.83084509    -0.35547995     0.18430921     0.14249072     6.109497       6.109497       6.109497       0              0              0              0.96473119   
     80000   0.63821734     0.94935863    -4.7722334     -3.700931       0.10249882    -0.14245428    -0.32636584     0.77631659    -0.31689141    -0.014092357   -0.034453283    6.1422967      6.1422967      6.1422967      0              0              0              0.94935863   
     81000   0.70072014     0.96599303    -4.8112638     -1.9141422      1.6257634      2.152541       1.5035644      1.2211849     -0.21616365    -0.029953427    0.36323513     6.1068356      6.1068356      6.1068356      0              0              0              0.96599303   
     82000   0.71280253     0.95424057    -4.7381963     -2.5407899      0.98334368     2.1134675      0.73287213     0.10369139     0.0092072173  -0.10400615    -0.13872657     6.131804       6.131804       6.131804       0              0              0              0.95424057   
     83000   0.6694665      0.97377533    -4.81846       -2.1343822      1.4915574      1.3433757      1.6905093      1.4407871     -0.19632854    -0.034220517    0.65793271     6.0905237      6.0905237      6.0905237      0              0              0              0.97377533   
     84000   0.69331136     0.92918759    -4.5847979     -3.3269765      0.18841743    -0.31523967     0.66699265     0.21349932    -0.24769107     0.14284514     0.25915815     6.1864251      6.1864251      6.1864251      0              0              0              0.92918759   
     85000   0.67343974     0.97820841    -4.7669045     -2.1971702      1.3913907      1.2460866      1.3181043      1.6099812      0.48976321    -0.074319707    0.23873162     6.0813093      6.0813093      6.0813093      0              0              0              0.97820841   
     86000   0.66188379     0.95476133    -4.7266253     -2.5544347      1.027956       1.4700039      0.92542177     0.68844221     0.19285868     0.44333711     0.16048446     6.130689       6.130689       6.130689       0              0              0              0.95476133   
     87000   0.64737033     0.95623844    -4.7903773     -2.6754202      0.99862313     0.80541647     1.2749651      0.9154878      0.47367256    -0.049538332   -0.039712576    6.1275307      6.1275307      6.1275307      0              0              0              0.95623844   
     88000   0.59027857     0.97870623    -4.9799391     -3.1153958      0.87509908     0.29789004     0.85573185     1.4716754     -0.27261298    -0.13417418     0.19708852     6.0802781      6.0802781      6.0802781      0              0              0              0.97870623   
     89000   0.69119974     0.96183503    -4.9783344     -3.7872708      0.13942054    -0.010271964    0.49476082    -0.066227242   -0.26399859     0.27059327    -0.44172522     6.1156229      6.1156229      6.1156229      0              0              0              0.96183503   
     90000   0.62727852     0.96834861    -4.9264239     -3.1674638      0.72427805     0.41869752     0.55463199     1.1995047      0.34281961     0.84339024    -0.1431976      6.1018798      6.1018798      6.1018798      0              0              0              0.96834861   
     91000   0.55762419     0.99026324    -5.0441905     -3.0537291      1.0426637      1.114226       1.0033471      1.010418       0.42064367    -0.015301223   -0.40441761     6.0565319      6.0565319      6.0565319      0              0              0              0.99026324   
     92000   0.5866469      0.96554466    -4.9429043     -3.0522435      0.89101365     0.6981424      0.94481499     1.0300836      0.34983559    -0.21027577    -0.44336723     6.1077807      6.1077807      6.1077807      0              0              0              0.96554466   
     93000   0.51720003     1.001457      -5.125153      -2.6554841      1.5456559      1.1986614      1.4906145      1.9476919      0.30615927     0.044077027   -0.64671309     6.0338817      6.0338817      6.0338817      0              0              0              1.001457     
     94000   0.60198635     0.96696666    -5.0103855     -4.1240571     -0.010668523    0.13884048     0.28851436    -0.45936042     0.77804403    -0.1985952      0.039670716    6.1047853      6.1047853      6.1047853      0              0              0              0.96696666   
     95000   0.5486941      0.99309509    -5.1126817     -3.5157079      0.70243228     0.10475956     0.28213412     1.7204032      0.19079584     0.39925982    -0.41437472     6.0507696      6.0507696      6.0507696      0              0              0              0.99309509   
     96000   0.55629973     0.98601286    -4.9901036     -3.2842202      0.78487167     0.25913607     0.61885229     1.4766266     -0.25162517     0.37072406    -0.30163686     6.065222       6.065222       6.065222       0              0              0              0.98601286   
     97000   0.52128253     0.99440309    -5.0578058     -2.8333016      1.307631       0.51877901     1.6252521      1.7788619      0.11473508     0.022182758   -0.10924367     6.0481154      6.0481154      6.0481154      0              0              0              0.99440309   
     98000   0.55108729     0.99178776    -5.187284      -3.4275204      0.84506252     1.6897831      0.25731012     0.58809429    -0.3022913      0.44263839    -0.39844785     6.053427       6.053427       6.053427       0              0              0              0.99178776   
     99000   0.49268515     0.99365114    -5.0871436     -2.9928279      1.2275956      1.5724494      1.2386835      0.87165394     0.69505575     0.35466879    -0.01073114     6.0496407      6.0496407      6.0496407      0              0              0              0.99365114   
    100000   0.49647072     1.0006218     -5.1853582     -3.3015657      1.0395641      0.85442701     1.4813372      0.7829281      0.52824358     0.61060342    -0.22724702     6.0355601      6.0355601      6.0355601      0              0              0              1.0006218    
    101000   0.49835969     0.98787981    -5.1171656     -3.5890993      0.70432642     0.83566934     0.66239467     0.61491524     0.2963793      0.39112315     0.058413319    6.0613988      6.0613988      6.0613988      0              0              0              0.98787981   
    102000   0.46898025     1.0120426     -5.1941921     -2.7046892      1.6464552      1.9722616      0.91758443     2.0495195      0.034196898    0.54231271    -0.10901947     6.0127706      6.0127706      6.0127706      0              0              0              1.0120426    
    103000   0.49165734     0.99923601    -5.1967887     -3.4399604      0.92931645     1.1445113      0.77900012     0.86443796     0.36691901     0.22708456     0.42526328     6.0383489      6.0383489      6.0383489      0              0              0              0.99923601   
    104000   0.44337339     1.0092478     -5.2577258     -2.9828871      1.4800197      1.6575617      0.86202025     1.9204771      0.011857546    0.30618738    -0.32678835     6.0183155      6.0183155      6.0183155      0              0              0              1.0092478    
    105000   0.45331847     0.9961359     -5.1690565     -3.6952666      0.7219378      1.0031715      0.83496824     0.32767367    -0.17852934     0.71013533     0.014083482    6.0446064      6.0446064      6.0446064      0              0              0              0.9961359    
    106000   0.43892764     1.0223639     -5.312759      -2.9065681      1.6275024      1.6878317      0.96334763     2.2313278     -0.19703227     0.56603811    -0.0074604671   5.992468       5.992468       5.992468       0              0              0              1.0223639    
    107000   0.43051513     1.0067384     -5.2396616     -3.8868627      0.65003734     0.14062985     0.53990386     1.2695783      0.15208889     0.3376886     -0.17851269     6.0233119      6.0233119      6.0233119      0              0              0              1.0067384    
    108000   0.43008861     1.0167096     -5.3668032     -3.7988821      0.85589743     0.67307435     0.49901157     1.3956064     -0.13925473     0.59122326    -0.19567047     6.0035563      6.0035563      6.0035563      0              0              0              1.0167096    
    109000   0.42238851     1.0030455     -5.304527      -3.6858992      0.90111139     0.70315933     0.70897961     1.2911952     -0.37123718     0.51108253    -0.86348931     6.0306948      6.0306948      6.0306948      0              0              0              1.0030455    
    110000   0.38190195     1.0113694     -5.3139577     -3.8921093      0.78322265     0.95747428     0.80550459     0.58668909    -0.3958067     -0.02983382    -0.70278531     6.0141042      6.0141042      6.0141042      0              0              0              1.0113694    
    111000   0.38429091     1.0205251     -5.2883482     -3.0452997      1.5488734      1.0810136      1.7658139      1.7997927     -0.27779077     0.6693182     -0.38905878     5.9960651      5.9960651      5.9960651      0              0              0              1.0205251    
    112000   0.37989042     1.0182169     -5.3889745     -3.1413813      1.5556566      1.8138695      1.1637104      1.6893899     -0.0037654007   0.50905756    -0.26579611     6.0005923      6.0005923      6.0005923      0              0              0              1.0182169    
    113000   0.36376185     1.0090436     -5.4308558     -4.572576       0.28928838    -0.031860402    0.39583436     0.50389119     0.028838918    0.32670747    -0.44924646     6.0187215      6.0187215      6.0187215      0              0              0              1.0090436    
    114000   0.36453569     1.0172292     -5.3985497     -3.8803387      0.9008411      0.48180985     0.98856061     1.2321528      0.13810512     0.47558788    -0.73246717     6.0025339      6.0025339      6.0025339      0              0              0              1.0172292    
    115000   0.36190282     1.0248284     -5.387693      -3.7023973      1.0668983      1.298          0.79019124     1.1125035     -0.20745391     0.2886504     -0.36766389     5.9876606      5.9876606      5.9876606      0              0              0              1.0248284    
    116000   0.34313919     1.0228034     -5.4078834     -3.5522925      1.2491736      0.89091237     1.3962727      1.4603358      0.20630659     0.14686704    -0.045036002    5.9916096      5.9916096      5.9916096      0              0              0              1.0228034    
    117000   0.30681933     1.0225426     -5.4511302     -4.2380381      0.70198868     0.9652051     -0.018423867    1.1591848      0.14903274     0.071543239   -0.36589487     5.9921189      5.9921189      5.9921189      0              0              0              1.0225426    
    118000   0.2964254      1.0144105     -5.4823192     -4.2513562      0.72719225     0.83150805     0.42262187     0.92744683    -0.097154721    0.28102123     0.11335584     6.0080884      6.0080884      6.0080884      0              0              0              1.0144105    
    119000   0.30301826     1.0294955     -5.5138057     -3.6361833      1.3340087      1.7474652      0.54679164     1.7077692     -0.07429398     0.45990599    -0.31826814     5.9785988      5.9785988      5.9785988      0              0              0              1.0294955    
    120000   0.30098152     1.027094      -5.4656381     -3.3181962      1.5856716      1.3784526      1.0691823      2.30938       -0.33454168     0.00074179537 -0.028608162    5.9832547      5.9832547      5.9832547      0              0              0              1.027094     
    121000   0.30433127     1.0284258     -5.5383896     -4.1079594      0.91269584     1.2689461      0.56189353     0.90724785    -0.14276549     0.26622675    -0.27348898     5.9806709      5.9806709      5.9806709      0              0              0              1.0284258    
    122000   0.28480661     1.0284571     -5.5538627     -4.1406461      0.92387489     0.83050808     0.7444091      1.1967075     -0.16865569    -0.062526362    0.016830944    5.9806103      5.9806103      5.9806103      0              0              0              1.0284571    
    123000   0.25684685     1.0281619     -5.5409875     -4.0800059      1.0072601      0.83833932     0.83017497     1.3532659      0.036338436    0.25338482    -0.048241612    5.9811825      5.9811825      5.9811825      0              0              0              1.0281619    
    124000   0.27264141     1.0339227     -5.5841944     -4.0795568      1.0317799      0.56577648     1.0249271      1.5046361      0.074078998    0.29508182    -0.43728245     5.9700533      5.9700533      5.9700533      0              0              0              1.0339227    
    125000   0.25265678     1.035735      -5.6007239     -3.9327662      1.2154514      1.3085053      0.69705985     1.6407892      0.083582594    0.28154491    -0.27902283     5.9665691      5.9665691      5.9665691      0              0              0              1.035735     
    126000   0.22423885     1.0320151     -5.6243129     -4.532181       0.71064125     0.84566584     0.25597423     1.0302837     -0.32959936     0.42396758    -0.12776685     5.9737294      5.9737294      5.9737294      0              0              0              1.0320151    
    127000   0.23544069     1.0317618     -5.6015012     -4.380416       0.81573903     1.2449844      0.35064152     0.85159119     0.14588176     0.18103995    -0.047160666    5.9742181      5.9742181      5.9742181      0              0              0              1.0317618    
    128000   0.2280005      1.0406049     -5.6265715     -3.8313179      1.3764013      1.4880596      0.91635512     1.7247892      0.38117894     0.072204733   -0.12541826     5.9572469      5.9572469      5.9572469      0              0              0              1.0406049    
    129000   0.20250009     1.042384      -5.6525608     -4.110384       1.1749994      1.2570317      0.86785451     1.4001118      0.056167173    0.30737778    -0.4173865      5.9538558      5.9538558      5.9538558      0              0              0              1.042384     
    130000   0.18833901     1.034862      -5.6601075     -4.5695814      0.76149856     0.93012671     0.26716415     1.0872048      0.19619072     0.34639891    -0.35394088     5.9682464      5.9682464      5.9682464      0              0              0              1.034862     
    131000   0.17886159     1.0390942     -5.6638908     -4.5302859      0.81866831     1.2544493      0.53474906     0.6668066      0.13360253    -0.062622938   -0.17470683     5.9601325      5.9601325      5.9601325      0              0              0              1.0390942    
    132000   0.17485405     1.0433291     -5.7309928     -4.4536091      0.96404936     1.4179055      0.47397186     1.0002707      0.15310686     0.25463357    -0.23450284     5.9520576      5.9520576      5.9520576      0              0              0              1.0433291    
    133000   0.17703697     1.0413006     -5.7166647     -4.4374154      0.96085694     1.2203073      0.77542524     0.88683829     0.1953884     -0.064407527    0.063346974    5.95592        5.95592        5.95592        0              0              0              1.0413006    
    134000   0.16032531     1.0492119     -5.7266589     -4.2175562      1.2111885      1.3884629      0.88946198     1.3556406      0.16270395     0.29707517    -0.2311613      5.9409125      5.9409125      5.9409125      0              0              0              1.0492119    
    135000   0.15052564     1.0444949     -5.7592507     -4.4211014      1.057304       1.2308174      0.69902929     1.2420653     -0.094117981    0.10219223    -0.036136785    5.9498423      5.9498423      5.9498423      0              0              0              1.0444949    
    136000   0.14406886     1.0381869     -5.7573756     -4.8619801      0.64214003     0.67284714     0.50194346     0.75162949     0.11910824     0.18363838    -0.30615007     5.9618683      5.9618683      5.9618683      0              0              0              1.0381869    
    137000   0.11980175     1.0545458     -5.7767932     -4.139993       1.3977487      1.396975       1.180631       1.6156402      0.23136418     0.19771126     0.14422532     5.9308793      5.9308793      5.9308793      0              0              0              1.0545458    
    138000   0.12002459     1.0495089     -5.7646761     -4.3422727      1.1861994      1.2975872      0.99766997     1.2633409      0.0035068575   0.11792169    -0.19078838     5.9403521      5.9403521      5.9403521      0              0              0              1.0495089    
    139000   0.11259069     1.0434155     -5.8149459     -5.0747605      0.54271244     0.85510282     0.12618079     0.64685372     0.074742777    0.3562346     -0.093988333    5.9518932      5.9518932      5.9518932      0              0              0              1.0434155    
    140000   0.093793931    1.0545571     -5.8169192     -4.2671215      1.3515685      1.360869       1.3170307      1.3768057      0.11631708     0.33951092    -0.22414263     5.930858       5.930858       5.930858       0              0              0              1.0545571    
Loop time of 73.4649 on 1 procs for 140000 steps with 200 atoms

Performance: 329299.925 tau/day, 1905.671 timesteps/s
49.9% CPU use with 1 MPI tasks x 1 OpenMP threads

MPI task timing breakdown:
Section |  min time  |  avg time  |  max time  |%varavg| %total
---------------------------------------------------------------
Pair    | 64.664     | 64.664     | 64.664     |   0.0 | 88.02
Bond    | 1.04       | 1.04       | 1.04       |   0.0 |  1.42
Neigh   | 0.37296    | 0.37296    | 0.37296    |   0.0 |  0.51
Comm    | 3.6038     | 3.6038     | 3.6038     |   0.0 |  4.91
Output  | 1.0818     | 1.0818     | 1.0818     |   0.0 |  1.47
Modify  | 1.8951     | 1.8951     | 1.8951     |   0.0 |  2.58
Other   |            | 0.8075     |            |       |  1.10

Nlocal:            200 ave         200 max         200 min
Histogram: 1 0 0 0 0 0 0 0 0 0
Nghost:           4247 ave        4247 max        4247 min
Histogram: 1 0 0 0 0 0 0 0 0 0
Neighs:          62657 ave       62657 max       62657 min
Histogram: 1 0 0 0 0 0 0 0 0 0

Total # of neighbors = 62657
Ave neighs/atom = 313.285
Ave special neighs/atom = 8.31
Neighbor list builds = 115
Dangerous builds = 0
System init for write_data ...
Generated 0 of 1 mixed pair_coeff terms from geometric mixing rule
WARNING: Not all mixed pair coeffs generated from mixing. Use write_data with 'pair ij' option to store all pair coeffs. (src/write_data.cpp:309)
Total wall time: 0:01:13
