LAMMPS data file via write_data, version 23 Jun 2022, timestep = 200

200 atoms
2 atom types
223 bonds
2 bond types

96.9508570591516 103.04914294084854 xlo xhi
96.9508570591516 103.04914294084854 ylo yhi
96.9508570591516 103.04914294084854 zlo zhi

Masses

1 1
2 1.5

Pair Coeffs # lj/cut

1 1 1
2 1 1

Bond Coeffs # harmonic

1 100 1.2
2 100 1.2

Atoms # full

22 11 1 0 97.87830862351476 97.78031878740741 99.5364334638912 1 -1 -1
29 15 1 0 97.12511624168788 99.40091236793425 98.5515640357652 -1 0 1
35 18 1 0 99.60474204899225 98.55195363142482 97.2895766317341 1 0 1
43 22 1 0 98.34349134501811 98.07260446875884 98.74061607624479 1 -2 -1
44 22 1 0 98.19708748869735 99.25822385293945 98.6212856247166 1 -2 -1
55 28 1 0 99.3924341708954 98.21999941624186 98.45011966970722 -1 -1 0
60 30 1 0 97.85771254838788 97.37527794560414 98.03211381463329 -1 2 1
67 34 1 0 98.02792943187237 97.7504983346711 97.13993268462657 1 0 0
85 43 1 0 98.44784962178665 99.5161551299859 99.98888065017104 1 1 1
87 44 1 0 98.7328209548621 98.78245330183688 99.35710463830802 0 -2 2
88 44 1 0 99.46999067027853 99.62902864559574 98.99813812085307 0 -2 2
93 47 1 0 98.74681862053328 99.65290473322446 97.65136351863605 0 0 2
98 49 1 0 97.39627272046205 98.99283237036263 99.5162290378278 -1 3 0
105 53 1 0 99.14201897400572 97.65187692942015 99.3148700178807 0 0 0
106 53 1 0 98.95284611346766 97.27362362837313 98.32383979762281 -1 1 0
119 60 1 0 99.80875037038591 98.70872181547689 99.29144345754543 -1 1 1
120 60 1 0 99.71450569169835 99.19551776856323 98.1211659870987 -1 1 1
123 62 1 0 96.99370367052595 97.53058151045492 98.66967058230665 2 -1 -1
139 70 1 0 97.08169306812252 98.10444480122827 97.83393547591429 1 -1 0
166 86 2 0 98.61295388061735 98.26711146866538 97.73299015203477 2 -1 1
177 97 2 0 97.79873155416702 98.84404551855867 97.72499007470624 0 2 0
197 117 2 0 97.43441664183474 98.47601880186895 98.66080634777403 -1 -1 0
8 4 1 0 99.57704515488459 102.86201188577115 99.019702776303 -1 -3 1
168 88 2 0 97.5778623680477 100.01720225951499 97.87281873416798 -1 -1 2
56 28 1 0 100.0672931228654 97.58119162420054 97.67647917149013 -1 -1 0
19 10 1 0 102.01670773302094 97.65031846084068 98.68443254858288 1 -2 0
21 11 1 0 102.95411901230264 98.18040078345173 99.53114680135435 -1 0 -1
25 13 1 0 101.52175017556765 97.73612661722639 97.24417090211324 -1 -1 0
27 14 1 0 100.17382925828468 99.69310064600539 96.99138622277839 0 -3 1
62 31 1 0 102.53372715169672 99.87063551306669 97.97750313986454 0 1 -1
65 33 1 0 100.68777981685705 99.46749759230187 97.85492283907728 -2 0 0
66 33 1 0 100.37223786433998 98.40162533612227 98.34719484072383 -2 0 0
69 35 1 0 101.39746911674449 98.72127813522266 98.4586739366225 0 1 0
70 35 1 0 101.0872729728557 97.59531776505816 98.27198288147484 0 1 0
122 61 1 0 101.7608136059603 98.39789489250202 99.40338086322686 0 1 1
127 64 1 0 101.33839816437964 97.5877518880406 99.82913750393612 -3 2 1
128 64 1 0 100.76750606328865 98.549372288492 99.43477904429021 -2 1 1
140 70 1 0 102.50509738882845 98.63225378696973 98.66840505005591 0 -1 0
145 73 1 0 100.72141778561559 98.54264050676491 97.25335951549248 -1 1 0
147 74 1 0 101.98369541446246 99.49579247671261 98.81283482519525 0 -1 1
160 80 1 0 101.68917445165778 99.26226320678686 97.6035142864081 0 0 2
161 81 2 0 100.23419005561124 97.70311516661171 99.17240555889784 1 0 0
163 83 2 0 100.62140827591665 99.46245167821925 98.88597719183619 1 0 0
164 84 2 0 102.28632863752829 98.54590618422314 97.59371679149599 -1 -1 1
167 87 2 0 102.94158040673156 99.24160144157982 97.28953561562406 0 2 0
181 101 2 0 102.5681728497122 97.09536268328823 99.58844997648896 -2 -1 2
184 104 2 0 101.23700798706122 99.48053806901063 99.8212906116962 -1 0 0
187 107 2 0 102.364102419752 99.08740050891319 99.8115588621527 -2 -2 1
3 2 1 0 98.3650002798223 100.7204894827868 97.5631158816982 -1 -1 0
4 2 1 0 98.1719412063101 101.81218665093407 97.27958553127333 -1 -1 0
5 3 1 0 99.72803059651096 102.71268594760988 97.82847749673044 0 0 1
11 6 1 0 98.48212527222003 102.82799213928912 99.46347600750319 0 -1 1
12 6 1 0 98.9581473475865 101.80618385640702 99.7793697369834 0 -1 1
47 24 1 0 99.99313317419278 101.86151120952441 98.77835573893749 0 2 1
48 24 1 0 99.180008023634 101.73366865501971 97.86287505432277 0 2 1
49 25 1 0 99.73125074010505 101.13524203126593 99.5760277087476 1 1 1
178 98 2 0 100.67611806357064 102.77068510680311 97.37549545984048 0 -2 1
57 29 1 0 97.32250468124784 101.13100214674017 97.56954263409143 0 0 1
58 29 1 0 97.42791470305531 100.68922639001127 98.66224874322147 3 -3 1
59 30 1 0 97.45026736480682 102.78180537161067 98.89050863385586 -1 1 1
79 40 1 0 97.03558492403985 100.9307062043281 99.57942437238648 0 0 0
89 45 1 0 99.39094551950666 100.53112599863309 97.81287025948768 0 -1 0
94 47 1 0 98.48986842103346 100.24425161699557 98.6346127570961 0 0 2
95 48 1 0 98.79214052990527 102.83647249273655 97.31854561487515 0 -1 1
96 48 1 0 97.61170360219167 102.88981802286246 96.97510589500163 0 -1 1
117 59 1 0 99.02045770201997 100.37696089382388 99.64894517325972 -2 0 -1
129 65 1 0 98.1664246340447 101.04801924004666 99.3905312352837 0 2 0
155 78 1 0 97.84443932453141 102.03369511855509 99.48570216781806 -1 1 0
186 106 2 0 98.11098947442473 101.5044512568577 98.39318489050252 1 1 1
188 108 2 0 98.82360239603697 102.24540173802984 98.60539389833754 1 -1 1
192 112 2 0 97.85483995484053 100.0036457926917 99.40956184026834 0 -1 0
194 114 2 0 99.16101739168684 101.23238636477399 98.78421969135181 1 1 1
200 120 2 0 97.44832982233329 102.20299007444584 97.89656091150597 2 0 -1
196 116 2 0 96.97403391622672 101.62039910578609 98.61605005500797 2 -2 0
76 38 1 0 97.61422788095496 102.95353318345883 99.95551443314811 1 -2 0
198 118 2 0 102.89569997451312 101.97802281445222 99.69434547850668 1 0 0
174 94 2 0 102.83553501453594 97.08999796674595 97.65191321171645 -1 3 1
6 3 1 0 100.50863505379506 102.91667583176917 98.62799914068455 0 0 1
20 10 1 0 101.70518214837088 102.99055529882673 97.86932884990338 1 -3 0
30 15 1 0 102.7818754945215 100.00023830105987 99.29720096099827 -2 0 1
37 19 1 0 101.46929472273729 102.70037331134412 98.9945541040559 -1 0 0
38 19 1 0 100.52169441132578 102.99773116732828 99.75019649605268 -1 0 0
175 95 2 0 101.93481534016941 101.65077656224364 98.69162184299773 -1 -1 -1
193 113 2 0 100.14712789597226 100.2458952926283 98.49903330176235 1 1 1
71 36 1 0 101.81751139758968 102.287187195094 99.90307807446202 0 -2 -1
80 40 1 0 102.00549653721406 101.19891618214298 99.59245232146468 0 -1 0
81 41 1 0 101.43325620874 100.31436591853786 99.27490709502624 0 -1 0
185 105 2 0 100.82732760201459 101.9571449804066 99.33988783191559 0 0 0
90 45 1 0 100.18930874177863 101.31493453709489 98.00793075045712 0 -1 0
91 46 1 0 100.23447863752254 100.77219053841289 97.15361636036127 -2 0 -1
92 46 1 0 101.28529506248009 101.1849868390165 97.73589531027 -2 0 -1
109 55 1 0 101.38531355212496 100.16066584258796 98.25127755486625 -1 -1 1
110 55 1 0 100.91045970314084 101.10426040694186 98.74569117713966 -1 -1 1
115 58 1 0 102.35386906770222 101.06817431762391 97.63443513830315 -1 1 -1
118 59 1 0 100.20948875217033 100.09892022811127 99.62633215734712 -2 0 -1
124 62 1 0 102.47021832089074 102.56684196529028 98.68474973529754 0 -1 -1
148 74 1 0 102.30123658483043 100.68929648576868 98.67388558621283 0 -1 1
157 79 1 0 102.1777049691659 102.11105297738662 97.7734610446369 -1 0 1
158 79 1 0 101.0201776055417 102.02712881287846 98.2136895499191 0 -1 1
159 80 1 0 101.17650637425481 100.28430637202285 97.24336879044303 0 0 2
54 27 1 0 102.82781767665784 102.2115283729103 97.00307409291528 -3 3 1
61 31 1 0 102.97073568006518 100.39658937384333 96.99630626496246 2 -1 -1
9 5 1 0 98.85865861276898 99.44567004297033 101.9161684610871 -1 -1 1
13 7 1 0 98.0929988973005 97.71168576868678 101.21042539957679 2 -1 -2
15 8 1 0 99.50251793140524 99.99235775347505 101.31354167191425 0 -1 0
24 12 1 0 99.80856970925286 97.77564798186584 100.20848746585082 3 0 -1
31 16 1 0 99.17422337753703 97.68769910762344 102.94633755968721 0 1 -1
32 16 1 0 98.41723119403484 96.98425198023084 102.41322080220219 -1 2 -1
36 18 1 0 98.41021331996353 98.65450399807106 102.91153968662918 1 0 0
68 34 1 0 97.10329400433066 98.40908018429384 102.83421374489173 2 -1 -1
75 38 1 0 97.34874846517869 97.77767338065051 100.47005930759761 1 -1 0
77 39 1 0 98.53737756874115 97.9242066262295 102.1167704429011 0 -1 0
78 39 1 0 97.43460891356023 97.52429688670559 102.2810596327017 0 -1 0
84 42 1 0 99.24669694557542 99.41690886519406 102.88452736407143 2 -1 -2
86 43 1 0 99.17290826202542 98.56719617308299 100.31419956223573 1 1 1
97 49 1 0 97.09116331877661 99.9399807484744 100.24697736512016 0 2 0
108 54 1 0 99.39835882498795 97.95949587125848 101.1677568214127 2 0 -1
126 63 1 0 98.6311614655386 99.44127532472687 100.95197001976466 -1 1 -1
141 71 1 0 97.7601937184599 98.56244474555687 102.07194761323613 1 0 -1
142 71 1 0 97.70010578367018 99.46983068419065 102.81008449605274 1 0 -1
172 92 2 0 98.55054435368348 97.48679009857189 100.22851978781267 2 -2 -1
173 93 2 0 97.76704790448102 99.56055982739635 101.71559304446123 1 1 -1
176 96 2 0 99.85082015565598 98.81337961835871 101.35789784126229 3 0 -2
179 99 2 0 99.42445913402173 98.49936094083908 102.29306823688935 -2 0 1
182 102 2 0 98.13403680702173 98.47686850090365 100.33154159778279 1 1 -1
189 109 2 0 99.51965851186456 99.50395541096343 100.20834459024327 0 0 -1
132 66 1 0 96.96985037912779 98.71039459312215 100.50707486957039 0 1 -2
150 75 1 0 100.09818329083417 97.73112440642595 101.85431370842385 1 -1 0
183 103 2 0 96.98909809016283 98.20070882493441 101.38910879150357 1 -1 0
14 7 1 0 99.06395522935979 97.08089125364495 101.47496714204154 -1 2 -2
1 1 1 0 101.40618392427511 98.5547724156428 100.34586247290265 0 -1 0
2 1 1 0 100.61596209490015 97.92388425942363 100.88733510882717 0 -1 0
10 5 1 0 100.030558400545 99.61892016517632 102.11073423283756 -1 -1 1
23 12 1 0 100.34524275386622 98.84110736662747 100.34677888923646 3 0 -1
26 13 1 0 100.50346281963094 97.54427921793307 102.77206682101033 -1 -1 -1
28 14 1 0 100.48107414898065 98.7625067776866 102.3631148330149 0 -3 0
63 32 1 0 101.61967960286707 97.2304692533212 102.39247700052245 0 1 -2
111 56 1 0 100.82822591492199 99.25159379738419 101.24331179859148 0 1 -1
112 56 1 0 101.8020533852223 99.54886267510774 100.70559732520339 0 1 -1
113 57 1 0 102.88089583168139 99.09507889750077 102.21545929863383 0 -1 -1
114 57 1 0 101.76489971912378 99.19280609776486 101.9230969323663 0 -1 -1
121 61 1 0 102.28066135927875 97.96469865734119 100.30801308510807 0 1 1
131 66 1 0 102.09709889711058 98.53835961896979 101.12385604772601 1 -1 -2
137 69 1 0 102.14904967955927 99.70936188568275 102.75523452686805 -2 0 1
138 69 1 0 101.64711702561476 98.64928968777593 102.82382807504861 -2 0 1
143 72 1 0 102.80546691869772 99.35920270910249 101.24589817039944 1 -1 -2
146 73 1 0 101.07174781374142 99.51728328596484 102.69875854509199 -1 1 -1
153 77 1 0 101.90034906829025 97.47045696011864 101.1721438241929 0 -1 -1
154 77 1 0 100.90631626289243 97.06353193288923 101.60668331649457 -1 0 -1
195 115 2 0 101.25578428256306 98.10417896890004 101.81505960514914 0 0 1
199 119 2 0 102.35071329271769 98.08267740421476 102.09311709099993 -1 -1 3
64 32 1 0 102.49739208746809 97.66658787135759 102.95720588411487 0 1 -2
34 17 1 0 97.15850476649267 97.04857338037637 101.23163922465136 2 -1 0
7 4 1 0 99.36702019238173 102.95839972435523 100.10540100789768 -2 -2 1
16 8 1 0 99.3831131477299 101.15826325765235 101.69364728928971 0 -1 0
40 20 1 0 97.18308006634055 101.14053903509364 102.42994064076875 -1 1 -1
45 23 1 0 98.531287107488 101.43330893862701 100.97754247004889 1 -1 0
46 23 1 0 98.19785795707487 102.53490003155922 101.46378715784564 1 -1 0
52 26 1 0 99.79203438584616 102.1589419537315 103.01295768794462 0 0 -1
73 37 1 0 98.53409907956815 100.47232528449116 101.51492778595293 1 0 -1
74 37 1 0 97.6341402574284 101.3507865380421 101.44532632348243 2 -1 -1
83 42 1 0 98.36211469559557 100.25074589738225 102.56233095023727 2 -1 -2
103 52 1 0 97.3940316852915 102.28882602555076 100.71721433751927 1 -2 -1
125 63 1 0 98.17057349618024 100.43333289825816 100.42862974126626 -1 1 -1
130 65 1 0 97.70836701189741 101.36972971050734 100.2552160722144 0 2 0
144 72 1 0 97.36626641091212 100.36053742056471 101.11528156114026 0 1 -2
149 75 1 0 99.75305586009858 102.57751469450747 101.91020581950275 0 -1 0
151 76 1 0 99.04364534549771 101.14060286770341 102.98787806838968 -1 1 -2
152 76 1 0 98.7150644067159 102.00879348670611 102.36115151171991 -1 1 -2
156 78 1 0 98.37644343404787 102.36368039192008 100.42973865117352 -1 1 0
162 82 2 0 99.41583444394254 100.36041520717599 102.34381128141469 1 -1 0
170 90 2 0 97.5519308189671 102.22727707440447 102.1825086718776 -1 2 -1
171 91 2 0 99.21711916329735 100.70471699073637 100.61258924911033 -1 -1 1
190 110 2 0 99.29189639930229 102.13064940579301 100.97786254912009 -2 -1 -1
107 54 1 0 100.07745391346866 96.99149148843546 100.94521941127101 1 1 -1
39 20 1 0 102.83699143822666 100.17415760906208 102.00651829896768 -2 1 -1
191 111 2 0 101.84693801995701 102.36064095538082 101.8910949124334 1 0 -1
17 9 1 0 100.40949788713688 100.2598583313615 100.79777546871142 -2 -1 0
18 9 1 0 101.36053242332196 100.15180376420216 101.54886975822916 -2 -1 0
33 17 1 0 102.70098324888319 102.92804312103533 102.18785137789722 1 -2 0
41 21 1 0 102.85655342532539 101.8947316991758 101.4688015054812 1 -1 0
42 21 1 0 101.7902164760317 101.76503407639184 100.94597602287337 1 -1 0
53 27 1 0 101.65643184990476 102.39052132521846 102.93792259977691 0 0 0
72 36 1 0 100.82736545999725 102.01178145168157 100.43343417007716 0 -2 -1
99 50 1 0 101.85633186741514 100.52076412485076 100.43184025310653 -1 -1 0
100 50 1 0 102.24097632232184 100.9221647169187 101.45310555976013 -1 -1 0
101 51 1 0 100.7997530240411 102.07828415462016 101.48271914012471 0 0 -2
102 51 1 0 100.04942007473255 101.42922169405804 100.80889373129591 0 0 -2
104 52 1 0 102.46114952312934 102.7867327655625 100.68436514384011 -1 -1 -1
116 58 1 0 102.32081158905048 101.46373283968595 102.61580404815902 -1 1 -2
133 67 1 0 100.31773255112874 101.4510536436799 102.13796692320648 0 -2 -1
134 67 1 0 100.71156193638436 102.5186607928699 102.43614380428335 1 -3 -1
135 68 1 0 100.96911517305536 101.0428854421304 101.1915810328558 0 0 -1
136 68 1 0 100.68233570401604 100.444536281064 102.2544539520779 0 0 -1
165 85 2 0 102.84217750076516 101.0662772603592 100.6170532198483 2 2 0
169 89 2 0 101.3954820064176 101.41486081966191 102.09604078166261 1 -2 1
180 100 2 0 101.25757145916783 102.87259503753245 100.70471670813085 -2 0 -2
82 41 1 0 100.78193119124838 100.99657736930796 100.06860240676974 0 -1 0
50 25 1 0 99.89495440061889 102.13116082561369 100.05935459351353 1 1 1
51 26 1 0 100.84958567303163 101.70529387022634 103.04512495412081 1 -1 -1

Velocities

22 -0.87983946810754 0.9462121788342001 0.5069625367634354
29 0.469654613960888 -0.5922166904053623 -0.7672305263715394
35 -0.4698196942395916 -0.6123778943546379 -0.8901400387374521
43 -0.07519997779049578 -0.6932417646053158 -0.22199490722778467
44 0.9160667585238912 -0.6001764128585995 0.806906539173542
55 -0.24144930748310411 -0.09857253624230855 -1.6820910235853765
60 0.7166555738752617 0.013748755941777418 -0.0850522319374359
67 0.07599119039711635 -0.24290039560795262 0.33511138357448916
85 0.43053634375378264 0.1243567749603886 0.419288942228321
87 -0.10113414483335932 0.9067107986562069 0.3770211142303651
88 -1.0790306130119682 1.052753220129893 0.39643489841711865
93 0.368291831474401 -0.2892752327480866 0.17177538230056172
98 -0.2414220837428288 0.5562287553570541 0.6889240790540438
105 0.42625021965071525 -0.29756202660344916 -0.6614327941378747
106 -0.12473389989590417 -0.8657415167857363 -0.6617888823656195
119 0.052244798224642466 0.25899225685520366 -0.682712097288495
120 -1.1664129305432185 -0.7523647625479026 0.5053232082285727
123 -0.018693975969350813 0.4848745189680873 0.2180366227056382
139 -0.07877514954305125 -0.4225547440310482 -0.2753097585203006
166 1.6239222408224427 -0.6628178489374691 0.3327481290903613
177 -0.4719266492570106 -0.25720820922610915 0.13099660529213444
197 -0.48527371929066004 -0.46099164239107904 0.9977210174588065
8 0.23462256553244618 0.07950596231427172 -0.4046892114265248
168 -0.22156882831541128 -0.009803383406316691 -0.6078636511418181
56 0.0249086437339001 -0.49597484073494763 -0.24325552247172583
19 -0.29152108376664415 0.7975268654732355 1.2653690860642108
21 0.4491057093589942 -0.3816157877532104 0.9921101644887911
25 -0.5887076515696077 0.056209258657742615 0.5442094218910738
27 1.8530455129201402 0.834350540773518 0.04220090891140395
62 -0.34239745351959217 -0.4974846909286239 1.304227883227503
65 -0.13586798173923453 0.47024928655585585 -0.903781918166301
66 -0.9069234652748406 -0.5480941194374666 -0.45166685702315307
69 -0.2727608583915306 1.0525071921055031 0.18054539734708291
70 -0.2935202744297694 0.15285828245749133 -0.5820485394942209
122 -0.019221664043666813 -1.113141921499624 -0.1832961677309663
127 1.1880214941118297 0.04562044346461867 0.1218231246640025
128 -0.39315187089163645 -0.45841029969175695 -0.2136872626955813
140 1.0353225378689004 0.1561927098548458 -0.47006292631148316
145 0.22129829163958842 0.2559352183369569 0.17192201303786844
147 -0.7000209647937323 -0.6171615435828521 0.6372125070408086
160 -0.7450294419794059 0.8976527720229031 -0.863834895337146
161 -0.5252911485409117 1.0097695612939774 -0.025335223090705506
163 -0.6572896550340952 0.2649393245103919 0.053016680692102136
164 -0.08798390712848997 0.10545978411938209 0.8062463321334806
167 0.3932840868967187 -0.041280417464804084 -0.39095506316255807
181 0.03369555152208422 0.0346189871945365 0.7063892985635509
184 -0.029688623127979402 -0.36124688492349727 0.9661079232662078
187 -0.5014332308460343 0.3883050840014391 -0.4698691356266613
3 -0.2410830489573441 0.9632825598501095 -0.5720176735045277
4 -0.388574683486578 0.09906214922122408 0.4071330635866834
5 -0.40902845630509554 0.06755047791716977 0.7827453716610454
11 1.1366237355433944 0.5045476889577222 0.21262494004305516
12 0.5908155276212168 -0.4091235635257193 -0.3085387619379173
47 0.00026378450178574634 -1.18389330815204 0.11688178830264573
48 0.2771383750398928 -0.35069856539904 -0.23248462573930084
49 0.782518962330636 1.2280486041499368 -0.1513936118163189
178 -0.01594533387597508 0.38003534130089167 -0.6601631326029009
57 -0.5791874310181614 -0.13750864711710717 -0.19274517727450985
58 -0.7049483661283766 0.6540937840051411 -0.5157098137020452
59 0.6244062236363859 -0.25301192240346526 0.4678981335608556
79 -0.23014862036417716 0.4212859075319315 0.05078842789399823
89 0.3394467297213146 -1.0570162163239785 -0.057438085510521555
94 -0.34611095211793197 -0.240401502983664 -0.28003189922110233
95 -1.0964952231584975 -0.3786621060837548 -0.3610544072540248
96 -0.4340133040402417 0.7263197475700663 -0.6258213143713318
117 0.12172546582769549 -0.37591666826224773 -0.3906603836830121
129 0.739871816562276 -0.3479190573549739 0.5108770932081413
155 -0.2772182890633907 0.24055391599485115 -0.31260200528429005
186 0.42857384357123 -0.7790890637500435 -0.9323577122804623
188 -0.8082036744199145 0.5033438301343759 -0.5133622705879155
192 0.7639120338767165 -0.118099663066153 0.15646227737931495
194 0.34024782492771727 -0.13528636224366214 -0.6808730248147913
200 -0.10022377668417475 -0.017190042676866673 0.05629872169334422
196 0.27590001751407733 0.07076099840193567 -0.17016201144508855
76 0.4460301229824048 -0.9121393923943799 1.2369723474879504
198 -0.37574270387277575 0.1801171329900033 -0.4177317213313312
174 -0.07505757585148745 -1.010516173975539 0.33382543535128195
6 0.14387160602688293 0.0822063785843149 -0.2085160510750309
20 0.9618536609283599 0.31739241851540384 -0.4504482987421678
30 0.36881301848719455 0.03108622150018117 0.4730339695759363
37 -0.5330751712690156 0.48671591402384085 0.9296830895431681
38 0.09657051856495323 -1.199899338358238 -0.8730127178072896
175 0.28306063368479 -0.1361404390407416 -0.1626453193757038
193 0.7404673272298945 -0.07091604242456663 -0.03543163392465177
71 0.6274868611647395 -0.3800712323576356 -0.5572755736586995
80 0.1279728211151441 -0.22938237842384387 1.1552021439814235
81 1.1891638017909465 0.6274362438055545 -0.32662674067767744
185 -0.021269213880876915 -0.489050650095356 -0.06609760242177987
90 -0.026199982470446512 0.8994008371261548 -0.7278823812141685
91 -0.31884651167021977 -0.6796705099604746 -0.3208861382027208
92 1.0656246833669347 -0.24252549996081066 -0.8506070431860097
109 0.03549367005184642 0.03042406969214817 -1.0608750215613276
110 -1.5579188091917737 -1.031875446539645 1.0804650637589457
115 -0.5631957911647716 -0.08979532345434052 -0.17619010943034827
118 0.4978674253131941 -1.0669960576901922 -0.011149309659802969
124 -0.08816577644129402 -0.5772630330646374 -0.18134611809469578
148 -0.7725143237007521 -0.9023144310701012 -0.9778782044653327
157 -0.37481540579356903 0.820679037343826 0.7057744599672587
158 -1.127240701817655 -0.8695661281012376 -1.0776509887206072
159 -0.05978586855520456 0.9088849679334905 -1.1440314434642047
54 0.4025873138676281 -0.5259259143489787 -0.253871980676725
61 0.3107818630165514 0.23140209803205758 -0.46086613690138667
9 -0.6032197031860148 -0.4811142328890542 -1.3819001409996303
13 -0.6457079809112216 0.36717526911545684 0.6620587496417616
15 -0.40138863104627526 1.5413836030638357 -0.596009942254196
24 -0.09421854960970409 0.6850544232636846 -0.5398192671692855
31 0.16900548665788714 -1.3887296643505895 0.32203008633859104
32 -0.4238166365609482 -0.8870245872111392 0.9104531492991639
36 -0.7943739088834717 0.12949814090915332 -0.6923214381495242
68 -0.6937203082752813 -0.16790323842765212 0.06477279202732142
75 -0.6030606569523651 -0.015068135906810583 -1.2545854372833842
77 0.326703482150888 -0.5385081488795207 0.43134489028548273
78 -0.6215098357423413 -0.04475076251976447 -0.23226756131607634
84 -1.4591675168930034 0.9853690956785532 0.4564704062846021
86 0.6168881724006133 0.34924871289064047 -0.17202224129488963
97 0.0932475635082106 -0.2825740250716376 0.4507247388937744
108 -0.20438189932413045 -0.7847640398373589 0.06525856017773407
126 -0.3699790605648846 -0.22820357149941514 0.8425588293359535
141 1.018632083002994 -0.5503135482676906 0.5179320524539505
142 -0.6955288366234821 0.3244365515815791 0.8924334111577888
172 -0.2654329727901927 1.0915687070807791 -0.47503044298765085
173 0.3825692988854181 0.4401596985095237 0.35900019706408964
176 0.517552438389633 0.13044671427857338 -0.0844979712618948
179 -0.19121140872462977 0.36800634784362074 0.10527515827313592
182 0.013062592218461061 0.04830656076667926 -0.3220998773456679
189 -0.16026903840646092 -0.4449164993259501 -0.2248829059796045
132 0.49108244616471514 1.024404492121568 -0.3183126010003204
150 -0.061533390236314926 0.7570626673196832 0.44848998159611564
183 0.03195904916121251 -0.10349022751977577 0.006783724656238212
14 0.18568268804168853 -0.30107771084949336 -0.24415479963318126
1 -0.6649961703566531 -0.1586622389311511 0.08226815333923138
2 0.8100150276753607 -0.04660538024595825 0.32237677268823417
10 0.3344641685301414 -0.6095953572083814 0.7497376132873552
23 -0.31697896781536056 -0.2781949957587263 -0.630810200127001
26 0.5265566913108903 0.13134824515772162 -0.9414573233067751
28 -0.10185615175995912 -0.7692818950274676 -0.5732804837273804
63 0.6854562115490805 -0.039101147981795835 1.1687929632068292
111 0.028394714649249767 -0.2426871144855419 0.5441039691113204
112 0.9668650997118561 0.21253595170984857 -0.43349632280765327
113 -0.8502414773953783 0.4641075191073139 -0.0846668171873824
114 0.6993642102486023 0.6886804255878054 -0.5436232581427286
121 0.19641678848510385 -1.4927168205391286 -0.12335837514944899
131 0.028917253659614478 -0.8677781822877015 -0.6248684784266049
137 -0.2778429248407048 -0.6246901808972276 0.6249001407376964
138 0.1349630788023778 0.012657825289490967 0.32045068539454175
143 0.2919815795485568 0.7282559142565772 0.03610552904155496
146 0.26129802378952277 0.7900895721808262 0.367627006716505
153 0.20278764386754047 -0.15467409551264338 -0.36764215190662275
154 0.6476165488626328 0.040971501670119294 1.2228785035332193
195 -0.5012157442792443 0.4551635275973168 0.012835328913604001
199 -0.44671759604503036 -0.051031285749508395 0.707433175407745
64 -0.5019052704415545 -0.9366161624918267 -0.289014308604615
34 0.6284246016970765 -0.1705319593470058 0.43266121436768656
7 -0.029346407375133936 0.7282165036765141 1.0564966299459366
16 -0.6367954294747065 0.1603647853616402 -0.8449372998547239
40 -0.11627532059784988 -1.015448100917695 0.37511505923034005
45 -0.11967495947372085 0.2763147110189383 -1.431231084094993
46 0.2964305729789361 -0.6176055934318211 -0.23564117859479916
52 -0.47062172406556096 -0.40480332461032903 -0.35461959910494395
73 -0.7541094353524503 0.29010385974849134 0.31754117112048996
74 0.5171130834775362 0.8837346430894689 0.3305072263710168
83 0.8359298093509482 -0.19111174101836104 0.6242955927097592
103 -0.06395659337595387 0.1368427276072828 0.16384729628016503
125 0.25558336818841065 0.21053464482264042 0.13502701637619915
130 1.174335598259676 1.374122646182995 0.2781217262715147
144 -0.517581851448387 1.011783823471246 0.597415940711377
149 0.2581389662834473 0.9746569039173264 0.36714506773902644
151 0.26533757631406957 0.28980208309858724 0.13970259291297815
152 1.5574242375339904 -0.4537890270626894 -0.8401223073420396
156 0.605108242806744 -0.133237311898406 0.200762674693322
162 -0.10404897657416488 0.3062877686381337 0.7371149215534727
170 -0.5053640036079726 0.4008723115294167 0.22532331440893166
171 -1.244411209942291 0.14586708290890885 -0.1079161477496334
190 0.5735802625637348 -0.2719996287949034 0.045492408962185274
107 0.16100024906188845 -0.11642672365876745 0.8896354584547581
39 -0.15225747763011 1.2009350821188665 -0.1693210198315318
191 -0.8067106780434758 0.23442548435417906 0.1418217922576204
17 0.3323900045727263 0.006476855436490727 0.20999751635626282
18 0.12601808045404286 -0.16255831552422392 -0.0636473200109764
33 0.8057085323214755 -0.1975531245796523 -0.5237938296948906
41 0.1649396239995194 -0.1994253368069305 0.2723143404290399
42 0.2494351594223536 -0.743040788276111 0.14504191818467901
53 -0.27545982162697513 -1.0033718694890632 0.021490674819809322
72 0.0054792968013055564 -0.10731980367303233 0.006923070779172683
99 -0.8422116363781684 -0.6021288605233127 -0.33295226776902187
100 0.2989301011703388 0.07473469573270626 0.6643348784570183
101 0.0520500346996894 -0.13216396251191379 0.11066335210022206
102 -0.5750162519660474 0.03723427082393304 1.3805893135793827
104 -0.3957624576196294 -0.09045262790862753 0.7967062777557322
116 0.04798243533747599 0.9547360094255339 -0.1410201142224229
133 -0.6340846613663038 0.008716173330065743 0.8305844379314837
134 0.5585022776091871 -0.17947303794591618 -0.35323378749201395
135 -0.3145239540215178 0.28765279049430065 -0.04527718232034607
136 1.1081408021548649 1.1852475858036706 -0.7487245941909584
165 -0.26262915882282223 -0.004544764146179351 0.813702500096973
169 -0.555780988776487 0.07694573612842308 -0.010611179301676847
180 0.9925439116749708 1.0145139039115285 -0.5082039236913437
82 0.5022099953972575 0.32570863212284146 -1.5552398080241034
50 0.5846354761986816 -0.18057966605438758 -0.4285333223911008
51 -0.8396865749317225 0.14259969689977794 1.1066614144594946

Bonds

1 1 29 30
2 1 35 36
3 1 43 44
4 1 55 56
5 1 67 68
6 1 85 86
7 1 87 88
8 1 93 94
9 1 105 106
10 1 119 120
11 1 123 124
12 1 139 140
13 2 166 31
14 2 166 35
15 2 166 43
16 2 166 60
17 2 177 29
18 2 177 67
19 2 177 142
20 2 197 22
21 2 168 3
22 2 168 44
23 2 168 57
24 2 168 93
25 1 19 20
26 1 21 22
27 1 25 26
28 1 27 28
29 1 65 66
30 1 69 70
31 1 127 128
32 1 145 146
33 1 147 148
34 2 161 8
35 2 161 55
36 2 161 70
37 2 161 105
38 2 163 66
39 2 163 69
40 2 163 81
41 2 163 88
42 2 164 25
43 2 164 62
44 2 164 64
45 2 164 68
46 2 167 61
47 2 167 139
48 2 167 160
49 2 181 21
50 2 181 59
51 2 181 123
52 2 181 19
53 2 184 118
54 2 184 128
55 2 184 122
56 2 184 147
57 2 187 1
58 2 187 112
59 2 187 121
60 2 187 140
61 1 3 4
62 1 5 6
63 1 11 12
64 1 47 48
65 1 49 50
66 2 178 20
67 2 178 26
68 2 178 52
69 2 178 158
70 1 57 58
71 1 59 60
72 1 79 80
73 1 89 90
74 1 95 96
75 1 117 118
76 1 129 130
77 1 155 156
78 2 186 4
79 2 186 48
80 2 186 58
81 2 186 155
82 2 188 11
83 2 188 106
84 2 188 47
85 2 188 5
86 2 192 30
87 2 192 79
88 2 192 98
89 2 192 117
90 2 194 89
91 2 194 129
92 2 194 94
93 2 200 54
94 2 196 148
95 2 198 124
96 2 198 80
97 2 198 103
98 2 198 130
99 2 174 157
100 2 174 96
101 1 37 38
102 2 175 37
103 2 175 115
104 2 175 92
105 2 175 110
106 2 193 65
107 2 193 90
108 2 193 109
109 2 193 120
110 1 71 72
111 1 81 82
112 2 185 38
113 2 185 50
114 2 185 72
115 2 185 82
116 1 91 92
117 1 109 110
118 1 115 116
119 1 157 158
120 1 159 160
121 1 61 62
122 1 9 10
123 1 13 14
124 1 15 16
125 1 31 32
126 1 75 76
127 1 77 78
128 1 97 98
129 1 141 142
130 2 172 13
131 2 172 24
132 2 172 76
133 2 172 86
134 2 173 39
135 2 173 113
136 2 173 83
137 2 173 144
138 2 176 2
139 2 176 10
140 2 176 23
141 2 176 28
142 2 179 36
143 2 179 77
144 2 179 84
145 2 179 108
146 2 182 75
147 2 182 85
148 2 182 87
149 2 182 132
150 2 189 119
151 2 189 126
152 2 183 78
153 2 183 141
154 2 183 143
155 2 183 34
156 1 1 2
157 1 23 24
158 1 63 64
159 1 111 112
160 1 113 114
161 1 121 122
162 1 131 132
163 1 137 138
164 1 143 144
165 1 153 154
166 2 195 111
167 2 195 114
168 2 195 131
169 2 195 150
170 2 199 153
171 2 199 63
172 2 199 138
173 1 7 8
174 1 45 46
175 1 73 74
176 1 83 84
177 1 103 104
178 1 125 126
179 1 149 150
180 1 151 152
181 2 162 9
182 2 162 15
183 2 162 27
184 2 162 73
185 2 170 32
186 2 170 33
187 2 170 40
188 2 170 152
189 2 171 16
190 2 171 17
191 2 171 45
192 2 171 49
193 2 190 7
194 2 190 12
195 2 190 14
196 2 190 46
197 1 107 108
198 1 39 40