LAMMPS (23 Jun 2022)
OMP_NUM_THREADS environment is not set. Defaulting to 1 thread. (src/comm.cpp:98)
  using 1 OpenMP thread(s) per MPI task
Reading data file ...
  orthogonal box = (0 0 0) to (200 200 200)
  1 by 1 by 2 MPI processor grid
  reading atoms ...
  200 atoms
  scanning bonds ...
  1 = max bonds/atom
  reading bonds ...
  80 bonds
Finding 1-2 1-3 1-4 neighbors ...
  special bond factors lj:    0        0        0       
  special bond factors coul:  0        0        0       
     1 = max # of 1-2 neighbors
     0 = max # of 1-3 neighbors
     0 = max # of 1-4 neighbors
     1 = max # of special neighbors
  special bonds CPU = 0.000 seconds
  read_data CPU = 0.004 seconds
Generated 0 of 1 mixed pair_coeff terms from geometric mixing rule
Neighbor list info ...
  update every 1 steps, delay 0 steps, check yes
  max neighbors/atom: 2000, page size: 100000
  master list distance cutoff = 5.5
  ghost atom cutoff = 5.5
  binsize = 2.75, bins = 73 73 73
  1 neighbor lists, perpetual/occasional/extra = 1 0 0
  (1) pair lj/cut, perpetual
      attributes: half, newton on
      pair build: half/bin/newton
      stencil: half/bin/3d
      bin: standard
Setting up Verlet run ...
  Unit style    : lj
  Current step  : 0
  Time step     : 0.002
Per MPI rank memory allocation (min/avg/max) = 7.1 | 7.101 | 7.101 Mbytes
   Step          Temp         Density         PotEng        Enthalpy        Press           Pxx            Pyy            Pzz            Pxy            Pxz            Pyz             Lx             Ly             Lz             Xy             Yz             Xz          Density    
         0   1              2.75e-05       2.2913944e-28  2.4875         2.4875e-05     2.4540872e-05  2.7057051e-05  2.3027077e-05 -8.5634887e-07  1.0219777e-06  4.891355e-07   200            200            200            0              0              0              2.75e-05     
       100   2.5464849      0.00020837982  4.8396544     -3.0617167     -0.0022167823  -0.0064440164  -9.2061089e-05 -0.00011426951 -0.00011444592  0.0001369577  -2.1032559e-05  101.82529      101.82529      101.82529      0              0              0              0.00020837982
       200   4.2649227      0.00048094576  1.6461156      17.20523       0.0040197087   0.0058397735   0.003365582    0.0028537706  -3.7822916e-05 -7.9819415e-05  8.1887724e-05  77.050512      77.050512      77.050512      0              0              0              0.00048094576
       300   3.4204511      0.00083252861  0.10145152     9.1858916      0.0030117985   0.0036348064   0.0028765743   0.0025240149  -5.2091853e-05 -5.9405606e-05  4.0213393e-05  64.171349      64.171349      64.171349      0              0              0              0.00083252861
       400   2.6603145      0.0012518332   1.5338049      0.90385233    -0.0052354758  -0.0046865771  -0.0058686328  -0.0051512176  -0.00045220965 -0.00023169329 -0.00023223991  56.013418      56.013418      56.013418      0              0              0              0.0012518332 
       500   1.8257119      0.0017357658   1.6455656      11.413752      0.011114127    0.010057096    0.012936386    0.010348899   -0.00049683186  0.00060038661  0.00019934956  50.23162       50.23162       50.23162       0              0              0              0.0017357658 
       600   1.8933524      0.0022799713   0.34476942     2.2977052     -0.0018092458  -0.0019732255  -0.0023519423  -0.0011025697   7.6101117e-05 -0.00031008157 -0.00017909243  45.866729      45.866729      45.866729      0              0              0              0.0022799713 
       700   1.9991335      0.0028743689   0.26153726     2.6329318     -0.00160001    -0.0007870294  -0.0019309495  -0.002082051   -0.00044290105 -0.00045459679  5.7746728e-05  42.458051      42.458051      42.458051      0              0              0              0.0028743689 
       800   1.005076       0.0035283421   0.97647511     7.7781457      0.017005309    0.016079772    0.019756771    0.015179383   -0.001167009    0.0012557091   0.00012519682  39.653726      39.653726      39.653726      0              0              0              0.0035283421 
       900   0.95791874     0.0042287104   0.6791188     -1.3787091     -0.013407017   -0.01344659    -0.015944115   -0.010830347    0.00091104437 -0.0012816838  -0.00035367189  37.331168      37.331168      37.331168      0              0              0              0.0042287104 
      1000   1.4232         0.0049741306   0.054746268    3.9965539      0.0082194419   0.0078369577   0.010073001    0.0067483673  -0.0010241195   0.00021148099  0.00033356837  35.36458       35.36458       35.36458       0              0              0              0.0049741306 
      1100   0.91688215     0.0057766563   0.35298004     5.3989716      0.019312648    0.021509848    0.020451133    0.015976964   -0.0016068498   0.0012570732  -0.00032208635  33.644601      33.644601      33.644601      0              0              0              0.0057766563 
      1200   0.68735046     0.0066110595   0.69758096    -2.2868325     -0.024102024   -0.029822237   -0.025011909   -0.017471926    0.0020336876  -0.0016856167  -0.00022387083  32.165023      32.165023      32.165023      0              0              0              0.0066110595 
      1300   1.0087855      0.0074954264   0.25782914     5.0035198      0.022077972    0.025374708    0.023813024    0.017046183   -0.0023294649   0.00037379949  0.00042878891  30.846705      30.846705      30.846705      0              0              0              0.0074954264 
      1400   1.0373867      0.0084293112  -0.0048907508   3.3070889      0.013515097    0.018270403    0.01202966     0.010245229   -0.0010601798   0.00048500605 -0.00022762248  29.662667      29.662667      29.662667      0              0              0              0.0084293112 
      1500   0.90090985     0.0093831898   0.39919275    -0.87584895    -0.022346064   -0.03581835    -0.017616377   -0.013603463    0.0020280869   0.00033446956  0.00049261529  28.62139       28.62139       28.62139       0              0              0              0.0093831898 
      1600   0.86852253     0.010397478    0.45516031     5.5098771      0.035525789    0.046333518    0.033251485    0.026992363   -0.0028098289  -0.002051203   -0.00042476815  27.658687      27.658687      27.658687      0              0              0              0.010397478  
      1700   1.0962776      0.011446371    0.045713503    1.4784813     -0.0021168144  -0.003534588   -0.0022905208  -0.00052533456  0.00063203421  0.0020552103   0.0011873523   26.786643      26.786643      26.786643      0              0              0              0.011446371  
      1800   1.18204        0.012515056    0.1091129      1.1357299     -0.0083916609  -0.019874786    0.00092490035 -0.0062250974   0.00081074832  0.0012824311   0.00087867554  26.001393      26.001393      26.001393      0              0              0              0.012515056  
      1900   0.90989812     0.013650359    0.43686935     5.6740542      0.048138138    0.066550116    0.041406272    0.036458025   -0.006645925   -0.0034387444  -0.00089016498  25.259585      25.259585      25.259585      0              0              0              0.013650359  
      2000   0.97619497     0.014800897    0.27319185    -0.25025584    -0.026647248   -0.042966884   -0.02154766    -0.015427201    0.0063533124   0.004463392   -0.0017919715   24.58734       24.58734       24.58734       0              0              0              0.014800897  
      2100   1.2179183      0.015984917   -0.027459101    2.7434829      0.013851641    0.0134488      0.016447057    0.011659065   -0.0013709949   0.0010037894   0.0018882593   23.964632      23.964632      23.964632      0              0              0              0.015984917  
      2200   0.96069112     0.017231468    0.19933516     4.8831447      0.050910811    0.06822702     0.047272713    0.037232699   -0.0048026251  -0.0041983047  -0.0016745584   23.372229      23.372229      23.372229      0              0              0              0.017231468  
      2300   0.82632154     0.018475087    0.36210321    -1.0834816     -0.044993046   -0.067059732   -0.041497879   -0.026421527    0.00080272876  0.0053970355  -0.0015129633   22.835581      22.835581      22.835581      0              0              0              0.018475087  
      2400   1.0488641      0.019773402    0.041916101    3.9457335      0.042034437    0.05165672     0.042698166    0.031748426   -0.0069227926  -0.0039550804   0.00164727     22.324432      22.324432      22.324432      0              0              0              0.019773402  
      2500   1.0093531      0.021118707   -0.014491954    3.3857763      0.036358904    0.044854207    0.0309131      0.033309404   -0.0011521227  -0.00062277672 -0.00035497854  21.839957      21.839957      21.839957      0              0              0              0.021118707  
      2600   0.84877012     0.022456448    0.27660834    -0.85747847    -0.049013773   -0.062232176   -0.043789567   -0.041019577    0.0034599408   0.0039617425   0.0045300894   21.397377      21.397377      21.397377      0              0              0              0.022456448  
      2700   0.91488235     0.023867962    0.21074411     4.6240698      0.066132998    0.075145772    0.066479508    0.056773714   -0.0036403958  -0.0070751717  -0.0011382097   20.966975      20.966975      20.966975      0              0              0              0.023867962  
      2800   1.0642299      0.025297092   -0.026626748    1.842225       0.006450495    0.0022738317   0.0058966695   0.011180984   -0.0061785089   0.0053679566  -0.0022332721   20.564462      20.564462      20.564462      0              0              0              0.025297092  
      2900   1.0765576      0.026725966    0.077041948    0.67494493    -0.024511578   -0.029596054   -0.022293496   -0.021645184    0.0044921094  -0.00048433449  0.0082664615   20.191245      20.191245      20.191245      0              0              0              0.026725966  
      3000   0.9904113      0.028238919    0.20675329     5.1277415      0.088382666    0.09903867     0.088751798    0.07735753    -0.0022936154  -0.0011278232   0.00092311377  19.824011      19.824011      19.824011      0              0              0              0.028238919  
      3100   1.0556457      0.029739402    0.070142842    0.57549688    -0.028933659   -0.042520354   -0.023427864   -0.02085276    -0.0050291347  -0.0013165862  -0.0050001264   19.484839      19.484839      19.484839      0              0              0              0.029739402  
      3200   1.1452831      0.031271159   -0.058837611    2.0389583      0.011043292    0.016140323    0.018467741   -0.0014781871   0.0026789983  -0.0022903841   0.0041472771   19.161356      19.161356      19.161356      0              0              0              0.031271159  
      3300   1.0086954      0.032875226    0.025709207    4.224259       0.080486678    0.089470621    0.082525166    0.069464248   -0.00039912436  0.00050395547  0.001444999    18.844501      18.844501      18.844501      0              0              0              0.032875226  
      3400   0.90741978     0.034455913    0.091314656   -0.018561738   -0.045863966   -0.060099488   -0.042346561   -0.035145848    0.002455226   -0.0026874657   0.01000981     18.551811      18.551811      18.551811      0              0              0              0.034455913  
      3500   1.0135369      0.036089189   -0.097399527    2.5378253      0.036828068    0.039946976    0.043478181    0.027059048   -0.0066192378  -0.0027130559   0.0012985042   18.267615      18.267615      18.267615      0              0              0              0.036089189  
      3600   0.95308351     0.037782179   -0.095566588    3.3722996      0.070253869    0.072141705    0.068902137    0.069717764    0.0017706608   0.0074124137   0.0012905426   17.990583      17.990583      17.990583      0              0              0              0.037782179  
      3700   0.86949257     0.039438751    0.029090122   -0.618164      -0.06973387    -0.077839548   -0.059416287   -0.071945777    0.0054967449  -0.016608714    0.00094002119  17.735081      17.735081      17.735081      0              0              0              0.039438751  
      3800   0.96251924     0.041185732   -0.08393364     3.4330939      0.077895982    0.088605655    0.083021539    0.062060751   -0.0050635056  -0.0043959351   0.0030617511   17.480692      17.480692      17.480692      0              0              0              0.041185732  
      3900   1.0476373      0.042938456   -0.2079703      2.5644908      0.047187897    0.029489578    0.069411035    0.042663079   -0.0081057355   4.2671462e-05  0.0082179814   17.23953       17.23953       17.23953       0              0              0              0.042938456  
      4000   1.0157896      0.044668358   -0.09708596     0.27377106    -0.046504188   -0.03019792    -0.0735403     -0.035774344    0.021071175   -0.012489656    0.0036895951   17.014044      17.014044      17.014044      0              0              0              0.044668358  
      4100   1.0128663      0.046495538   -0.073118031    3.5946122      0.091132404    0.10200557     0.1063135      0.065078145   -0.0023343688  -0.0044348615   0.0059735672   16.788187      16.788187      16.788187      0              0              0              0.046495538  
      4200   1.0346627      0.048318514   -0.12523801     1.7036351      0.012503029   -0.0041810574   0.019536375    0.022153768    0.0061240048  -0.0018057828  -0.0039083583   16.574345      16.574345      16.574345      0              0              0              0.048318514  
      4300   1.0434689      0.050147645   -0.1266977      0.78295847    -0.029528807   -0.028869148   -0.034614257   -0.025103016    0.0080525591  -0.0071419857   0.0013065144   16.370328      16.370328      16.370328      0              0              0              0.050147645  
      4400   0.99691191     0.052066667   -0.093001374    3.6802759      0.10817495     0.11596693     0.11890548     0.089652441   -0.0089917896   0.0020125279   0.0074183495   16.166685      16.166685      16.166685      0              0              0              0.052066667  
      4500   0.96339189     0.053952047   -0.086365576    1.0634636     -0.014127257   -0.039792407   -0.003340885    0.0007515222   0.0031873731   0.013104065   -0.010284597    15.97613       15.97613       15.97613       0              0              0              0.053952047  
      4600   1.0095002      0.055869357   -0.16042205     1.314374      -0.0016193534   0.0093709638   0.00034393577 -0.01457296    -0.011179941   -0.012027452    0.013120826    15.791244      15.791244      15.791244      0              0              0              0.055869357  
      4700   0.98642133     0.057875224   -0.16519925     3.3240147      0.10612107     0.12333537     0.10040559     0.09462225    -0.0015104555   0.015651406    0.012197306    15.606661      15.606661      15.606661      0              0              0              0.057875224  
      4800   0.96240285     0.059826509   -0.14823888     0.36981567    -0.049945982   -0.067784732   -0.04040851    -0.041644704    0.011469771    0.0089868322  -0.0076365422   15.435108      15.435108      15.435108      0              0              0              0.059826509  
      4900   1.0271734      0.061829751   -0.23274326     2.1654024      0.048625689    0.077815503    0.027233622    0.040827943   -0.010280683   -0.0052834507   0.020946085    15.266579      15.266579      15.266579      0              0              0              0.061829751  
      5000   1.0353553      0.063890397   -0.27451229     2.6145319      0.078049462    0.061669531    0.10714289     0.065335963   -0.0017410606   0.014766589    0.025498916    15.100652      15.100652      15.100652      0              0              0              0.063890397  
      5100   0.97546368     0.065914167   -0.18804315     0.26517579    -0.060081399   -0.053581943   -0.085377417   -0.041284837    0.011604439    0.00014216367 -0.045833345    14.944497      14.944497      14.944497      0              0              0              0.065914167  
      5200   1.0346464      0.068034823   -0.29374177     2.5674496      0.081455106    0.10947946     0.05204333     0.08284253    -0.0041690452   0.017837907    0.042426739    14.787581      14.787581      14.787581      0              0              0              0.068034823  
      5300   1.0645106      0.070124588   -0.3794039      2.0564965      0.054003482    0.06055163     0.080709927    0.020748888    0.018782156    0.0090975155   0.017884988    14.639204      14.639204      14.639204      0              0              0              0.070124588  
      5400   1.0276224      0.072207959   -0.36813077     0.96476018    -0.013183566   -0.0028955667  -0.0088772216  -0.027777911   -0.026656702    0.00049873137 -0.009092315    14.497036      14.497036      14.497036      0              0              0              0.072207959  
      5500   0.97691159     0.074377964   -0.35903388     2.3078251      0.081735867    0.091890508    0.060359676    0.092957417    0.025637258    0.010527378    0.039187776    14.354656      14.354656      14.354656      0              0              0              0.074377964  
      5600   0.94554061     0.076556206   -0.3841138      1.3127104      0.019877113    0.029129538    0.02596238     0.0045394203   0.0040367171  -0.0039842613  -0.024720652    14.217201      14.217201      14.217201      0              0              0              0.076556206  
      5700   0.95570356     0.078743926   -0.43003273     0.79599054    -0.014343156    0.012160356   -0.042861411   -0.012328415   -0.0095148864   0.0021198058   0.033669811    14.084298      14.084298      14.084298      0              0              0              0.078743926  
      5800   0.92939801     0.081020874   -0.41345555     2.0769788      0.081264516    0.04217894     0.10226653     0.099348084    0.0038737643  -0.021824141   -0.010246362    13.951104      13.951104      13.951104      0              0              0              0.081020874  
      5900   0.96073405     0.083259977   -0.45208087     0.77431035    -0.015706188    0.0065409869  -0.012360976   -0.041298575   -0.010304749   -0.0071436037  -0.0084290952   13.824904      13.824904      13.824904      0              0              0              0.083259977  
      6000   1.044965       0.085542257   -0.54315303     1.2671162      0.019492667    0.028701219    0.041260895   -0.011484114   -0.0092910793  -0.0025554987   0.02744192     13.700844      13.700844      13.700844      0              0              0              0.085542257  
      6100   1.0526859      0.08784996    -0.53915565     2.6228934      0.12705622     0.12592997     0.11723309     0.13800561     0.012406314    0.0113766      0.018208254    13.57981       13.57981       13.57981       0              0              0              0.08784996   
      6200   1.0836616      0.090095623   -0.59388454     0.95548006    -0.00556958    -0.02155248    -0.033863121    0.038706862    0.0096442835  -0.022289805   -0.022377341    13.466033      13.466033      13.466033      0              0              0              0.090095623  
      6300   1.0252549      0.092452969   -0.55757717     1.210468       0.019991045    0.04766548     0.011280267    0.0010273874   0.023169786    0.024015937    0.007628438    13.350595      13.350595      13.350595      0              0              0              0.092452969  
      6400   1.0047861      0.094844176   -0.59589021     1.1301456      0.019520011    0.021595756    0.061664803   -0.024700526   -0.044901734    0.0031333255   0.0028504263   13.23744       13.23744       13.23744       0              0              0              0.094844176  
      6500   0.95006751     0.09726541    -0.57865929     1.0931035      0.022440632    0.034503041   -0.0087895709   0.041608425    0.0017379659  -0.0024858502  -0.02571913     13.126676      13.126676      13.126676      0              0              0              0.09726541   
      6600   0.91798675     0.099706572   -0.57406635     1.0740051      0.025196413    0.013011662    0.019237178    0.043340399    0.00053162114 -0.033949099    0.013705911    13.01866       13.01866       13.01866       0              0              0              0.099706572  
      6700   0.93173271     0.10219156    -0.61030656     1.0272099      0.022937864    0.060351507    0.015818998   -0.0073569127   0.007895033    0.019772158   -0.019128446    12.912269      12.912269      12.912269      0              0              0              0.10219156   
      6800   0.92858023     0.1046913     -0.57748974     1.069642       0.024861877    0.022998027    0.014611027    0.036976575    0.014176804    0.00015653251  0.017292088    12.80867       12.80867       12.80867       0              0              0              0.1046913    
      6900   0.98259018     0.10719239    -0.60211971     1.1356598      0.026434001    0.028036136    0.035836596    0.01542927    -0.029730264   -0.013339735    0.013754258    12.708264      12.708264      12.708264      0              0              0              0.10719239   
      7000   1.0558288      0.10971359    -0.65394766     1.2232607      0.030059908    0.078351427   -0.006694361    0.018522658   -0.0049077505  -0.0082962471   0.027636283    12.610165      12.610165      12.610165      0              0              0              0.10971359   
      7100   1.0882874      0.11225045    -0.65976751     1.3339194      0.037697574    0.0474538      0.028726289    0.036912634    0.035143597    0.056951244   -0.046694423    12.514443      12.514443      12.514443      0              0              0              0.11225045   
      7200   1.1192709      0.11476021    -0.69894255     1.38721        0.043362745    0.031986603    0.044109389    0.053992242    0.057944494    0.018345804   -0.0019356056   12.422541      12.422541      12.422541      0              0              0              0.11476021   
      7300   1.1116342      0.11729714    -0.74952063     1.768708       0.091610623    0.11346022     0.087734533    0.073637116   -0.032937808    0.0036145971  -0.0036239338   12.332329      12.332329      12.332329      0              0              0              0.11729714   
      7400   1.0408405      0.11983362    -0.75713614     1.116588       0.034890072    0.013923879    0.048982894    0.041763445    0.024462805    0.019548105   -0.016834325    12.244696      12.244696      12.244696      0              0              0              0.11983362   
      7500   0.93990047     0.12245079    -0.72719027     1.188924       0.057141418    0.066334772    0.056827182    0.0482623      0.0033752864  -0.02245877    -0.013400238    12.15683       12.15683       12.15683       0              0              0              0.12245079   
      7600   0.94653664     0.12505007    -0.82893081     0.6130696      0.0033302516   0.012872535    0.008110975   -0.010992755   -0.065143829   -0.0055018208  -0.043172033    12.07201       12.07201       12.07201       0              0              0              0.12505007   
      7700   0.93056298     0.12777076    -0.87092374     0.8323245      0.036517232    0.01255222     0.064653408    0.032346069    0.057531366    0.0084138774   0.014799       11.985709      11.985709      11.985709      0              0              0              0.12777076   
      7800   0.86768641     0.13049725    -0.79961101     0.77731487     0.033443351    0.036040939   -0.017293884    0.081582997    0.032465845    0.0072662412   0.0023722494   11.901648      11.901648      11.901648      0              0              0              0.13049725   
      7900   0.95454534     0.13321404    -0.90372224     0.42451708    -0.011676767   -0.020917487    0.026516869   -0.040629681   -0.070969614   -0.0089341955   0.018445873    11.820184      11.820184      11.820184      0              0              0              0.13321404   
      8000   0.99193711     0.13598569    -0.90225614     1.4249962      0.10468255     0.15957981     0.055820087    0.098647764    0.068433497   -0.03445755    -0.03230565     11.739326      11.739326      11.739326      0              0              0              0.13598569   
      8100   1.050839       0.13864727    -0.91991725     0.5094134     -0.017525844    0.0090017863   0.020203196   -0.081782513   -0.01629998     0.027891433   -0.009824957    11.663721      11.663721      11.663721      0              0              0              0.13864727   
      8200   1.0380268      0.14144957    -0.85782847     0.88617081     0.025042272    0.050855738   -0.0027426418   0.02701372     0.0059965019  -0.059445443    0.041555083    11.586182      11.586182      11.586182      0              0              0              0.14144957   
      8300   1.076837       0.14430758    -0.90974001     1.4368311      0.096999865    0.10509148     0.096549296    0.089358823   -0.048371144   -0.017713516    0.0010234257   11.509183      11.509183      11.509183      0              0              0              0.14430758   
      8400   1.1188154      0.14708699    -1.0132458      0.85408126     0.026408139    0.0091950805   0.05656601     0.013463326    0.10298994     0.002225951    0.035001607    11.436228      11.436228      11.436228      0              0              0              0.14708699   
      8500   1.0722947      0.14985991    -1.035031       1.6069752      0.14190457     0.15925685     0.15164544     0.11481142    -0.099801145   -0.0046701363  -0.012342209    11.365252      11.365252      11.365252      0              0              0              0.14985991   
      8600   1.0126662      0.15259003    -1.0695817      0.27710324    -0.022849583   -0.022857286    0.071221348   -0.11691281     0.0079072632   0.036671154   -0.010859114    11.297062      11.297062      11.297062      0              0              0              0.15259003   
      8700   0.92847815     0.15548206    -1.0502228      0.41839912     0.011713214   -0.053715155    0.054990557    0.03386424    -0.015052758    0.00182548    -0.0046065894   11.22658       11.22658       11.22658       0              0              0              0.15548206   
      8800   0.92095794     0.1584027     -1.1110302      0.47682899     0.030719961    0.041428201   -0.026261       0.076992682    0.014633347   -0.058352395   -0.014993615    11.157152      11.157152      11.157152      0              0              0              0.1584027    
      8900   0.92967656     0.16138988    -1.1684518      0.34355926     0.018261825    0.045134265   -0.0092219848   0.018873194   -0.035065892    0.012618626    0.020074116    11.087887      11.087887      11.087887      0              0              0              0.16138988   
      9000   0.93941322     0.16436779    -1.1911246      0.38082574     0.025383775    0.012409653    0.05651353     0.0072281422   0.015197516   -0.052536411   -0.025253144    11.020517      11.020517      11.020517      0              0              0              0.16436779   
      9100   0.99791858     0.16732995    -1.2672798      0.44468309     0.033856849    0.02986811     0.04269417     0.029008268    0.015372882    0.019486512    0.077972291    10.9551        10.9551        10.9551        0              0              0              0.16732995   
      9200   1.0124707      0.17037538    -1.2813013      0.7636901      0.082690756    0.061338232    0.08238853     0.10434551    -0.11373547    -0.027343317    0.090924302    10.889433      10.889433      10.889433      0              0              0              0.17037538   
      9300   1.04409        0.17328574    -1.3152503      0.18324118    -0.0094224726  -0.0063760951  -0.037729841    0.015838518    0.0053221681  -0.023162038   -0.045077993    10.828126      10.828126      10.828126      0              0              0              0.17328574   
      9400   1.0203677      0.17631523    -1.2912044      0.6090918      0.060491732    0.062310452    0.11129132     0.0078734252   0.016900956    0.032106552   -0.021743364    10.76575       10.76575       10.76575       0              0              0              0.17631523   
      9500   1.0192901      0.17938336    -1.311172       0.80792001     0.097486955    0.091365439    0.081907649    0.11918778     0.016654018    0.014047199   -0.024775113    10.704018      10.704018      10.704018      0              0              0              0.17938336   
      9600   0.96187093     0.18238957    -1.2561229      0.19371441     0.0023619412   0.047367987    0.025297374   -0.065579537   -0.015355533   -0.061325674    0.01789318     10.644883      10.644883      10.644883      0              0              0              0.18238957   
      9700   0.96122204     0.18549499    -1.2833998      0.58896305     0.073816713    0.12295906     0.028200608    0.070290468   -0.055293233   -0.0086182782  -0.011851536    10.585145      10.585145      10.585145      0              0              0              0.18549499   
      9800   1.0089282      0.18860606    -1.378947       0.27369932     0.025173926    0.025445603    0.024430451    0.025645723   -0.012624515    0.039059253    0.072237398    10.526622      10.526622      10.526622      0              0              0              0.18860606   
      9900   0.99331339     0.19182458    -1.3770935      0.23233828     0.0221316     -0.010311839    0.073097444    0.0036091965   0.085047563    0.078717708   -0.044906268    10.467416      10.467416      10.467416      0              0              0              0.19182458   
     10000   0.98449258     0.1950374     -1.3820378      0.44277728     0.063025427    0.037188847    0.10415431     0.04773312     0.015958273    0.0023841426   0.022630516    10.409621      10.409621      10.409621      0              0              0              0.1950374    
     10100   0.98987624     0.19822708    -1.4125648     -0.091190048   -0.028115008   -0.0017541419  -0.11026925     0.027678366   -0.0066774507   0.0075972577   0.025855888    10.353485      10.353485      10.353485      0              0              0              0.19822708   
     10200   0.97053645     0.20144478    -1.3978631      0.76085752     0.13005915     0.18512218     0.14468591     0.060369368    0.023676091   -0.0014629897   0.01083053     10.298063      10.298063      10.298063      0              0              0              0.20144478   
     10300   1.0296204      0.20455235    -1.4984656     -0.15283728    -0.035532621   -0.063447821    0.009874148   -0.053024189   -0.013177905   -0.030687762    0.028444812    10.245647      10.245647      10.245647      0              0              0              0.20455235   
     10400   1.0217908      0.20777482    -1.5055615      0.18659059     0.031568424    0.034388186   -0.046276184    0.10659327     0.022607512   -0.0059582216  -0.028107231    10.192403      10.192403      10.192403      0              0              0              0.20777482   
     10500   1.0312319      0.21095155    -1.5492063     -0.062658521   -0.010080748    0.025792345   -0.0065083653  -0.049526224    0.0068109616   0.058360905    0.037877648    10.140981      10.140981      10.140981      0              0              0              0.21095155   
     10600   0.96133713     0.21426196    -1.4802568     -0.088343617   -0.0083528078  -0.07964225     0.029114439    0.025469388    0.14690844     0.042315461    0.01350143     10.088483      10.088483      10.088483      0              0              0              0.21426196   
     10700   0.98093415     0.21756646    -1.5342547      0.28229759     0.069721761    0.14974175     0.1009155     -0.041491969   -0.048780237   -0.04711278    -0.081087857    10.037146      10.037146      10.037146      0              0              0              0.21756646   
     10800   0.97957671     0.2209098     -1.5560531      0.35312981     0.089802788   -0.0015205607   0.093869246    0.17705968    -0.047496291    0.014709112   -0.051724108    9.986253       9.986253       9.986253       0              0              0              0.2209098    
     10900   0.9245807      0.22418555    -1.4827388      0.4627787      0.11526822     0.061614301    0.12989272     0.15429764     0.034477834    0.0091993559   0.027476737    9.9373753      9.9373753      9.9373753      0              0              0              0.22418555   
     11000   0.96764581     0.22741444    -1.542029      -0.96226996    -0.17871723    -0.088085566   -0.20632869    -0.24173744    -0.083297798   -0.00036495957 -0.022509707    9.8901197      9.8901197      9.8901197      0              0              0              0.22741444   
     11100   0.94548969     0.23107549    -1.4903705      0.094376062    0.036468579    0.072165513    4.6063726e-05  0.037194159    0.026811673   -0.032450682    0.04072243     9.8376099      9.8376099      9.8376099      0              0              0              0.23107549   
     11200   0.99339477     0.23466599    -1.5170186     -0.028141228    0.0013302722   0.056160791   -0.083010505    0.030840531    0.018422779    0.0086088258  -0.051409215    9.7871785      9.7871785      9.7871785      0              0              0              0.23466599   
     11300   1.0411875      0.23813608    -1.5308293      0.2473644      0.048541079    0.011603791    0.11231487     0.021704572   -0.071730549   -0.065646147   -0.0014154052   9.7394065      9.7394065      9.7394065      0              0              0              0.23813608   
     11400   1.0569058      0.24162249    -1.5148353     -0.41297408    -0.10446235    -0.028011645   -0.1600616     -0.12531382     0.046265638   -0.024921152    0.054170921    9.6923356      9.6923356      9.6923356      0              0              0              0.24162249   
     11500   1.0417443      0.24519711    -1.4720098      0.39332564     0.069219622    0.15208151    -0.025787017    0.081364369    0.061151783   -0.081821905    0.03651138     9.6450047      9.6450047      9.6450047      0              0              0              0.24519711   
     11600   1.0832603      0.24874629    -1.5505322      0.34449611     0.062924289    0.22069481     0.026488018   -0.058409965   -0.1460805      0.063814744   -0.15436656     9.5989122      9.5989122      9.5989122      0              0              0              0.24874629   
     11700   1.0759761      0.25223209    -1.5952464      0.15901318     0.034020423   -0.017390184    0.0588424      0.060609051    0.041799108   -0.044903023   -0.021735557    9.5544887      9.5544887      9.5544887      0              0              0              0.25223209   
     11800   1.0149565      0.25568939    -1.5936968     -0.13513165    -0.013076739   -0.013189082    0.02577827    -0.051819404    0.083866288    0.12635612     0.096216571    9.5112294      9.5112294      9.5112294      0              0              0              0.25568939   
     11900   1.0123119      0.25930624    -1.6778093     -0.25779042    -0.021417892    0.017473468   -0.11099907     0.029271929   -0.039824347   -0.090829604    0.058317218    9.4668008      9.4668008      9.4668008      0              0              0              0.25930624   
     12000   0.93120692     0.26298225    -1.6272746     -0.43084439    -0.04623612    -0.081600769    0.02574196    -0.082849551    0.055140122    0.0052830603   0.046808571    9.4224842      9.4224842      9.4224842      0              0              0              0.26298225   
     12100   0.95806405     0.2666521     -1.7045845     -0.77563531    -0.12143857    -0.090467262   -0.17906421    -0.094784223   -0.11410713    -0.021945753   -0.027062039    9.379058       9.379058       9.379058       0              0              0              0.2666521    
     12200   0.98383419     0.27055152    -1.7659478     -0.013892943    0.069773339    0.16829858     0.10780215    -0.06678071    -0.067637457   -0.22804834    -0.02302444     9.3337801      9.3337801      9.3337801      0              0              0              0.27055152   
     12300   0.96680796     0.27427899    -1.7500159      0.26978146     0.14383102     0.19280589     0.066974823    0.17171236    -0.09896857     0.083212425    0.042664787    9.291305       9.291305       9.291305       0              0              0              0.27427899   
     12400   1.0531965      0.27770804    -1.8855715     -0.9277085     -0.15501984    -0.2251573     -0.1081654     -0.13173683     0.078837756    0.016404882    0.023699407    9.2529044      9.2529044      9.2529044      0              0              0              0.27770804   
     12500   1.0349305      0.28150192    -1.8883837      0.034175787    0.096715268    0.066229942    0.17602903     0.047886835    0.0067232955  -0.022588289    0.01907885     9.2111483      9.2111483      9.2111483      0              0              0              0.28150192   
     12600   1.0856322      0.28507843    -2.0043049     -0.090262197    0.076125462    0.14203388    -0.041041901    0.1273844      0.017234013   -0.042704946    0.081610092    9.1724659      9.1724659      9.1724659      0              0              0              0.28507843   
     12700   1.0289027      0.28840363    -1.9728005     -0.39685226     0.010568964    0.028409895   -0.041857809    0.045154805    0.15470461     0.058469865   -0.041095707    9.1370778      9.1370778      9.1370778      0              0              0              0.28840363   
     12800   0.98006253     0.29211112    -1.9651282     -0.63958442    -0.036434107    0.011725517   -0.24826499     0.12723715    -0.054890772    0.02479731    -0.078746993    9.098257       9.098257       9.098257       0              0              0              0.29211112   
     12900   0.96111937     0.29599622    -1.9789659     -0.68679131    -0.038290096   -0.047056892   -0.13639452     0.068581122   -0.059949081    0.022438884   -0.091132046    9.0582751      9.0582751      9.0582751      0              0              0              0.29599622   
     13000   0.96360548     0.2998739     -2.0142728     -0.40657834     0.046211462    0.073018839    0.12988843    -0.064272877    0.017065465    0.048649215    0.10524926     9.0190613      9.0190613      9.0190613      0              0              0              0.2998739    
     13100   1.0281778      0.30368955    -2.1343278     -0.28465324     0.086998545    0.4405312     -0.083461178   -0.096074385   -0.18350268    -0.019939047   -0.055650471    8.9811292      8.9811292      8.9811292      0              0              0              0.30368955   
     13200   0.99118405     0.30738535    -2.1047533      0.017435009    0.1796377      0.18195382     0.16634333     0.19061596     0.0054589485  -0.024725158   -0.057690655    8.9449896      8.9449896      8.9449896      0              0              0              0.30738535   
     13300   0.96845595     0.31093401    -2.092755      -0.77806718    -0.036953839   -0.26591972     0.055161273    0.099896925    0.12608998     0.010814858   -0.028364513    8.9108298      8.9108298      8.9108298      0              0              0              0.31093401   
     13400   0.97509536     0.31473929    -2.1176467     -0.68995332    -0.0079075127   0.099565089   -0.17999373     0.056706108   -0.12588203    -0.0062217564  -0.12666147     8.8747727      8.8747727      8.8747727      0              0              0              0.31473929   
     13500   0.9745459      0.31862205    -2.1173162     -0.93238829    -0.078086112   -0.060289441   -0.1802277      0.0062588025  -0.068449758    0.019616209    0.054283798    8.8385757      8.8385757      8.8385757      0              0              0              0.31862205   
     13600   0.91835955     0.32265951    -2.0117866     -0.93921771    -0.087435665    0.11413295    -0.20549037    -0.17094958    -0.040720315   -0.019666347   -0.20376651     8.801555       8.801555       8.801555       0              0              0              0.32265951   
     13700   0.9737296      0.32701051    -2.0467909     -0.66569512    -0.021462501   -0.0079299381  -0.037370453   -0.01908711    -0.063544138    0.016531079   -0.0072042802   8.7623445      8.7623445      8.7623445      0              0              0              0.32701051   
     13800   1.0272401      0.33119358    -2.0575707     -0.81118026    -0.086340774   -0.08566369    -0.12543929    -0.047919339    0.075352017    0.065816327   -0.065680548    8.7252978      8.7252978      8.7252978      0              0              0              0.33119358   
     13900   1.0837828      0.33535327    -2.0894331     -0.40872637     0.01925564    -0.04515937     0.090736757    0.012189534   -0.023849426    0.037350002   -0.10382142     8.6890716      8.6890716      8.6890716      0              0              0              0.33535327   
     14000   1.1634283      0.33944157    -2.1840779     -1.2065774     -0.23418883    -0.32301817    -0.1715694     -0.20797893     0.11819036     0.04996592     0.135719       8.6540464      8.6540464      8.6540464      0              0              0              0.33944157   
     14100   1.0730532      0.34351421    -2.0613801     -0.13531468     0.10134715    -0.027822031    0.12579489     0.20606859     0.016567044    0.14081506     0.092259637    8.6197101      8.6197101      8.6197101      0              0              0              0.34351421   
     14200   1.0699652      0.34716315    -2.1085423     -0.4959361      0.0049496371   0.046339427   -0.011340856   -0.02014966     0.037125126    0.032860343   -0.19953633     8.5894038      8.5894038      8.5894038      0              0              0              0.34716315   
     14300   1.0123036      0.35109208    -2.1135938     -0.85942217    -0.081929394    0.0013720869  -0.11471172    -0.13244855    -0.13826765    -0.064039955    0.043003004    8.5572434      8.5572434      8.5572434      0              0              0              0.35109208   
     14400   0.94965533     0.35552858    -2.1046846     -0.76036211    -0.023606477   -0.19886554     0.1086791      0.019367008   -0.042435469   -0.17849886    -0.057243822    8.5215001      8.5215001      8.5215001      0              0              0              0.35552858   
     14500   1.0221678      0.35990988    -2.2495616     -0.87433758    -0.0491969     -0.012150226   -0.05575978    -0.079680696    0.11209364     0.096292107    0.0037459745   8.4867805      8.4867805      8.4867805      0              0              0              0.35990988   
     14600   1.0196761      0.36416785    -2.2644804     -1.1723021     -0.14225333    -0.24366197    -0.091717348   -0.091380667    0.081986011   -0.065832727   -0.15156196     8.453574       8.453574       8.453574       0              0              0              0.36416785   
     14700   0.97480542     0.36851176    -2.2104139     -0.56864811     0.062603012   -0.012557023    0.23526344    -0.034897377   -0.065557842    0.010200661   -0.018908046    8.4202266      8.4202266      8.4202266      0              0              0              0.36851176   
     14800   0.95129981     0.37279791    -2.1806053     -0.27323115     0.16523733     0.15388166     0.1101024      0.23172793    -0.12420075     0.035018262   -0.10718708     8.3878323      8.3878323      8.3878323      0              0              0              0.37279791   
     14900   1.0313636      0.37674177    -2.2768768     -1.4603607     -0.24755158    -0.53855473    -0.07597634    -0.12812368    -0.062586403   -0.045592105    0.0077357125   8.3584606      8.3584606      8.3584606      0              0              0              0.37674177   
     15000   1.0510456      0.38133128    -2.3013549     -0.67738984     0.019163453    0.1128941     -0.084057109    0.028653365    0.021206563    0.1134172     -0.058831831    8.3247925      8.3247925      8.3247925      0              0              0              0.38133128   
     15100   1.0992945      0.38582029    -2.3950387     -0.56557811     0.066208014   -0.14971382     0.029254548    0.31908331    -0.021308389   -0.095766558    0.16111261     8.2923802      8.2923802      8.2923802      0              0              0              0.38582029   
     15200   1.0571067      0.39003378    -2.4068174     -0.15094102     0.24045391     0.21697693     0.26692707     0.23745774    -0.01918694     0.16909106     0.15211405     8.2624115      8.2624115      8.2624115      0              0              0              0.39003378   
     15300   0.97372013     0.39370061    -2.3983077     -1.2247178     -0.10010283    -0.19099265     0.11712398    -0.22643982    -0.021528348   -0.088173333   -0.12455777     8.2366801      8.2366801      8.2366801      0              0              0              0.39370061   
     15400   0.97875988     0.39796096    -2.479956      -1.0636264     -0.016088321   -0.052917694   -0.1229832      0.12763593    -0.039722422   -0.11184824     0.023516276    8.2071821      8.2071821      8.2071821      0              0              0              0.39796096   
     15500   0.99285187     0.40238762    -2.5181878     -1.267429      -0.084527948    0.045298158   -0.30986814     0.010986137   -0.0072402987   0.061354456    0.13063375     8.1769754      8.1769754      8.1769754      0              0              0              0.40238762   
     15600   0.96211035     0.40676574    -2.4722167     -1.3249223     -0.10674099    -0.16169144    -0.075980459   -0.082551064    0.12899157     0.09203465    -0.16670225     8.1475326      8.1475326      8.1475326      0              0              0              0.40676574   
     15700   1.0176129      0.41111407    -2.5361871     -0.76116028     0.095767014    0.19171945     0.035944103    0.059637491   -0.11631615    -0.12378459     0.022048946    8.1187053      8.1187053      8.1187053      0              0              0              0.41111407   
     15800   0.99878899     0.41535331    -2.4925836     -1.6436423     -0.24232138    -0.44672187    -0.22057562    -0.059666663    0.13248841     0.047049979    0.11653251     8.0909901      8.0909901      8.0909901      0              0              0              0.41535331   
     15900   0.98430644     0.42001307    -2.4553492     -1.0319442     -0.017439076    0.042151761    0.11348362    -0.20795261     0.0049833507  -0.20187092     0.017678707    8.0609574      8.0609574      8.0609574      0              0              0              0.42001307   
     16000   1.0741715      0.42473202    -2.5851121     -1.1779609     -0.075698766   -0.10150379    -0.14739938     0.021806871   -0.021999095    0.10387224     0.053214471    8.0309926      8.0309926      8.0309926      0              0              0              0.42473202   
     16100   1.0184133      0.42958467    -2.5201682     -1.0472791     -0.018391234    0.045867269   -0.048196877   -0.052844094    0.00024190561  0.18850407     0.070408222    8.0006382      8.0006382      8.0006382      0              0              0              0.42958467   
     16200   1.0156164      0.43421141    -2.5539133     -1.483482      -0.17580678    -0.23198728    -0.10303609    -0.19239698    -0.018738645    0.0066858727   0.032126534    7.9721198      7.9721198      7.9721198      0              0              0              0.43421141   
     16300   0.94397428     0.43912237    -2.5212573     -1.948742      -0.33387921    -0.47233831    -0.23686328    -0.29243605    -0.027021662    0.028960375    0.13744299     7.9422894      7.9422894      7.9422894      0              0              0              0.43912237   
     16400   0.89375913     0.44445079    -2.5204688     -2.0161298     -0.33519528    -0.75065256     0.014235357   -0.26916862     0.015260145    0.028230875   -0.11161712     7.9104223      7.9104223      7.9104223      0              0              0              0.44445079   
     16500   0.96012949     0.4501245     -2.6741364     -2.1753609     -0.38228576    -0.35242738    -0.42883905    -0.36559083     0.027266755    0.30786189    -0.21893952     7.8770453      7.8770453      7.8770453      0              0              0              0.4501245    
     16600   0.92349676     0.455692      -2.6436333     -0.57773921     0.28483864     0.48025014     0.0086928034   0.36557297    -0.13977921     0.16438825    -0.11673495     7.844834       7.844834       7.844834       0              0              0              0.455692     
     16700   0.98939554     0.46022005    -2.7313105     -1.5824225     -0.13713924    -0.42396893     0.081784575   -0.069233358    0.040888178    0.073104146   -0.23795197     7.819021       7.819021       7.819021       0              0              0              0.46022005   
     16800   1.0799394      0.46495871    -2.8271788     -1.4666569     -0.10621669    -0.023137841   -0.39953446     0.10402223     0.014293129    0.033387065   -0.079990977    7.7923676      7.7923676      7.7923676      0              0              0              0.46495871   
     16900   1.0589027      0.46958574    -2.7521277     -0.95436564     0.09278577    -0.12409365     0.31845124     0.083999718    0.16929282    -0.02095087    -0.24891752     7.7666892      7.7666892      7.7666892      0              0              0              0.46958574   
     17000   1.1349717      0.47375202    -2.8343826     -1.5847928     -0.19137667    -0.22897688    -0.16859614    -0.17655698    -0.10475796    -0.20707725     0.021167532    7.7438548      7.7438548      7.7438548      0              0              0              0.47375202   
     17100   1.0793858      0.47813506    -2.766689      -0.88217868     0.1188935      0.023103376    0.16031072     0.17326641    -0.13236446    -0.16662613    -0.021309278    7.7201196      7.7201196      7.7201196      0              0              0              0.47813506   
     17200   1.0158391      0.48245593    -2.7317856     -0.99595276     0.096356553   -0.054626773   -0.0022275541   0.34592399     0.17636018     0.12671694     0.34204174     7.6970034      7.6970034      7.6970034      0              0              0              0.48245593   
     17300   0.98114578     0.48676426    -2.7624682     -1.8191661     -0.2305749     -0.060059388   -0.29282983    -0.33883548     0.006167398    0.081970397    0.16673885     7.6742274      7.6742274      7.6742274      0              0              0              0.48676426   
     17400   0.97815895     0.4915153     -2.8198348     -1.2970815      0.028083903   -0.13828786     0.13817184     0.084367725   -0.028620724    0.02682129    -0.081704447    7.6494207      7.6494207      7.6494207      0              0              0              0.4915153    
     17500   0.98217713     0.49606174    -2.8575846     -1.7498939     -0.16153966    -0.031409336   -0.10226642    -0.35094323     0.075942126    0.1317936      0.039650648    7.6259798      7.6259798      7.6259798      0              0              0              0.49606174   
     17600   0.90573154     0.50118899    -2.7549249     -1.7432662     -0.15497931    -0.29562995     0.03452402    -0.20383201     0.0044827167   0.056041299   -0.17858435     7.5998856      7.5998856      7.5998856      0              0              0              0.50118899   
     17700   0.95924165     0.50661358    -2.8135927     -1.7896404     -0.18777675    -0.25593674    -0.18261029    -0.12478323     0.0099444493  -0.21128605    -0.083003609    7.5726628      7.5726628      7.5726628      0              0              0              0.50661358   
     17800   0.9514709      0.51191852    -2.746158      -1.3213466      0.0022063844  -0.17612816     0.30177554    -0.11902822     0.02459031    -0.22453655    -0.047454117    7.5464138      7.5464138      7.5464138      0              0              0              0.51191852   
     17900   1.0214499      0.51701122    -2.7674597     -1.3117395     -0.032333765   -0.15066022     0.040478103    0.013180821   -0.093592981    0.04343886    -0.064470343    7.5215539      7.5215539      7.5215539      0              0              0              0.51701122   
     18000   1.0588386      0.52212993    -2.7581945     -1.3859243     -0.098752065   -0.1852446     -0.039833347   -0.071178252    0.11477787    -0.24211939     0.35024551     7.4968939      7.4968939      7.4968939      0              0              0              0.52212993   
     18100   1.0646678      0.52705699    -2.7392251     -1.7135187     -0.26990607    -0.024319492   -0.34428682    -0.44111191    -0.085280993    0.089024561    0.025350142    7.4734597      7.4734597      7.4734597      0              0              0              0.52705699   
     18200   1.0382576      0.53237955    -2.7090517     -0.78207211     0.18264493     0.07696183     0.34901932     0.12195364     0.17280515     0.081428955   -0.46534121     7.4484706      7.4484706      7.4484706      0              0              0              0.53237955   
     18300   1.0816129      0.53744617    -2.7989248     -1.7996005     -0.30047294    -0.27014364    -0.50881963    -0.12245554    -0.12085978    -0.21349265    -0.0258844      7.4249905      7.4249905      7.4249905      0              0              0              0.53744617   
     18400   1.0227219      0.54296652    -2.7464686     -1.9057823     -0.33847847    -0.13886047    -0.61301543    -0.26355951     0.035237741    0.32016408    -0.1069416      7.3997414      7.3997414      7.3997414      0              0              0              0.54296652   
     18500   1.042008       0.54861009    -2.8113048     -1.5492626     -0.14620695    -0.25074832    -0.083319172   -0.10455335    -0.10775832    -0.16303092     0.24976127     7.3742801      7.3742801      7.3742801      0              0              0              0.54861009   
     18600   1.0466162      0.55407826    -2.8688158     -1.5001288     -0.09741084    -0.15420007     0.13342659    -0.27145904    -0.031398819    0.2211366     -0.060150361    7.3499411      7.3499411      7.3499411      0              0              0              0.55407826   
     18700   1.0743174      0.55971749    -2.9753968     -1.9802113     -0.30948982    -0.089292685   -0.37990773    -0.45926905     0.24155074     0.0099633902  -0.22829432     7.3251738      7.3251738      7.3251738      0              0              0              0.55971749   
     18800   0.96913175     0.56546699    -2.8910771     -1.7389091     -0.1512681     -0.34979154    -0.16735072     0.063337969   -0.10921705     0.37859266     0.39322833     7.3002625      7.3002625      7.3002625      0              0              0              0.56546699   
     18900   1.0230504      0.5710962     -3.0279391     -1.3503134      0.078252149    0.1665173      0.13190724    -0.063668087   -0.039446167    0.054631963   -0.29457782     7.2761974      7.2761974      7.2761974      0              0              0              0.5710962    
     19000   1.0373787      0.57606397    -3.0895571     -1.9979839     -0.23917883    -0.22266666    -0.20242477    -0.29244506     0.14824128    -0.031511836    0.010086858    7.2552212      7.2552212      7.2552212      0              0              0              0.57606397   
     19100   1.0191719      0.58143629    -3.0931402     -1.7258797     -0.081323693   -0.077818582   -0.33821229     0.17205979    -0.30714815     0.011389242    0.29822044     7.2328065      7.2328065      7.2328065      0              0              0              0.58143629   
     19200   1.0084286      0.58705645    -3.1068961     -1.6030026     -0.0006330069  -0.22172976    -0.034083584    0.25391432    -0.13272597     0.11498234     0.12058551     7.2096515      7.2096515      7.2096515      0              0              0              0.58705645   
     19300   0.94720254     0.59241283    -3.040265      -1.5912134      0.019038986    0.087383022   -0.31228558     0.28201952     0.0012279997  -0.13409706    -0.014605776    7.1878567      7.1878567      7.1878567      0              0              0              0.59241283   
     19400   1.0582542      0.59759417    -3.2202086     -1.6617791     -0.011416749    0.09025477    -0.076954628   -0.047550388   -0.21744999     0.005442852    0.081422108    7.1670226      7.1670226      7.1670226      0              0              0              0.59759417   
     19500   1.0306047      0.60281095    -3.2004771     -1.4317123      0.12636414     0.35820556     0.091711225   -0.07082438     0.17133097    -0.24135133    -0.10710125     7.146288       7.146288       7.146288       0              0              0              0.60281095   
     19600   0.96932216     0.60781808    -3.1471718     -2.0609195     -0.19917704     0.20605059    -0.77480807    -0.028773634   -0.30845851     0.23748952     0.09295684     7.1266105      7.1266105      7.1266105      0              0              0              0.60781808   
     19700   0.98344759     0.61352693    -3.2215142     -1.7167407      0.020624518    0.49429225    -0.49102482     0.058606127   -0.069443896   -0.033470865    0.079065853    7.1044373      7.1044373      7.1044373      0              0              0              0.61352693   
     19800   0.97015021     0.61869763    -3.2549807     -2.2385659     -0.24271754    -0.18098453    -0.21844552    -0.32872258    -0.091673158    0.22147332     0.25678493     7.0845903      7.0845903      7.0845903      0              0              0              0.61869763   
     19900   0.95268564     0.62415445    -3.2779256     -1.8765133     -0.011615487    0.30138918     0.1532508     -0.48948645    -0.094815512    0.0018487439   0.11088872     7.0638836      7.0638836      7.0638836      0              0              0              0.62415445   
     20000   0.93694817     0.62988115    -3.3261272     -2.6181527     -0.39534812    -0.37550126    -0.36229743    -0.44824568     0.027779733    0.022604091    0.19392749     7.0424108      7.0424108      7.0424108      0              0              0              0.62988115   
     20100   0.87391958     0.63605024    -3.3453993     -2.7956922     -0.43634082    -0.16140201    -0.41909614    -0.72852432    -0.022437934   -0.064937028   -0.12094172     7.0195686      7.0195686      7.0195686      0              0              0              0.63605024   
     20200   0.88863339     0.64284679    -3.4662855     -2.7161349     -0.33669675    -0.51010017    -0.21466318    -0.28532688    -0.16315759     0.16072594    -0.098664619    6.9947425      6.9947425      6.9947425      0              0              0              0.64284679   
     20300   0.85950319     0.64971894    -3.452791      -2.2555038     -0.050513466    0.14400577     0.066072116   -0.36161829     0.033291967   -0.024014498   -0.30924918     6.9699937      6.9699937      6.9699937      0              0              0              0.64971894   
     20400   0.88206654     0.65566411    -3.4531361     -2.6842702     -0.32641247    -0.25516914    -0.17042299    -0.55364527    -0.15458299    -0.004043359   -0.40415691     6.9488631      6.9488631      6.9488631      0              0              0              0.65566411   
     20500   0.94385878     0.66130203    -3.4735007     -2.1531317     -0.053108685   -0.0212145     -0.27626658     0.13815503     0.21485317    -0.47437085    -0.25635425     6.9290593      6.9290593      6.9290593      0              0              0              0.66130203   
     20600   0.95556094     0.66689064    -3.4306652     -1.9475319      0.034531952    0.086201946    0.054925296   -0.037531386    0.28742881    -0.0074165445   0.013430436    6.9096495      6.9096495      6.9096495      0              0              0              0.66689064   
     20700   0.98001099     0.67200199    -3.416956      -1.5853331      0.22539951     0.066762032    0.41038998     0.19904653    -0.063231479    0.21620021    -0.28574582     6.8920863      6.8920863      6.8920863      0              0              0              0.67200199   
     20800   1.017793       0.67675103    -3.4528538     -2.2127605     -0.17162575     0.071288994   -0.29881077    -0.28735546     0.034876765    0.55127909     0.071182178    6.8759269      6.8759269      6.8759269      0              0              0              0.67675103   
     20900   1.0879175      0.68177306    -3.5519542     -1.3513817      0.3575315     -0.27069374     0.67479728     0.66849096    -0.20620833    -0.059808952    0.10388517     6.8590023      6.8590023      6.8590023      0              0              0              0.68177306   
     21000   1.040601       0.68592906    -3.4922765     -1.4562815      0.30112159     0.2389471      0.37688447     0.28753321     0.020318079    0.36404473    -0.20845881     6.8451215      6.8451215      6.8451215      0              0              0              0.68592906   
     21100   1.0331148      0.69020862    -3.5228126     -1.7698746      0.13240344     0.22428331    -0.4698174      0.6427444     -0.05054195    -0.40677529    -0.004675915    6.8309447      6.8309447      6.8309447      0              0              0              0.69020862   
     21200   1.0098399      0.69448493    -3.5654238     -1.9066207      0.09572346     0.12717946    -0.06019159     0.22018251     0.027954039   -0.32735068     0.14494636     6.8168952      6.8168952      6.8168952      0              0              0              0.69448493   
     21300   0.95569977     0.69861051    -3.5568797     -1.1459203      0.62530558     0.45927549     0.53151487     0.88512638    -0.17141202     0.048948388    0.23444482     6.8034499      6.8034499      6.8034499      0              0              0              0.69861051   
     21400   1.0195575      0.70262102    -3.6979626     -2.9241644     -0.47771289    -0.22542147    -0.52828835    -0.67942885    -0.27081576    -0.17888707    -0.45462834     6.7904806      6.7904806      6.7904806      0              0              0              0.70262102   
     21500   0.92984865     0.70808094    -3.5907297     -2.2942415     -0.058777758   -0.012065752    0.30543913    -0.46970665    -0.30403568     0.26170379    -0.21159537     6.7729821      6.7729821      6.7729821      0              0              0              0.70808094   
     21600   1.0358941      0.71399201    -3.7535128     -2.4924816     -0.18501533    -0.2044315     -0.33285972    -0.017754766    0.32695259    -0.52582686     0.3947032      6.7542393      6.7542393      6.7542393      0              0              0              0.71399201   
     21700   1.0171044      0.72015193    -3.7357012     -2.6877643     -0.30776111    -0.35601536    -0.2042308     -0.36303715     0.10674402     0.051925367   -0.21620482     6.7349264      6.7349264      6.7349264      0              0              0              0.72015193   
     21800   1.0028628      0.72624862    -3.7249087     -2.0018087      0.14942722     0.23090977     0.2512294     -0.033857502    0.30524342     0.069680008   -0.066258782    6.7160273      6.7160273      6.7160273      0              0              0              0.72624862   
     21900   1.0496477      0.73149085    -3.8118361     -1.9675197      0.18467968     0.33474373     0.46000329    -0.24070798     0.16225082     0.12686806     0.33770421     6.6999454      6.6999454      6.6999454      0              0              0              0.73149085   
     22000   1.0505658      0.73601499    -3.8445015     -1.5414457      0.49184967     0.4522708      0.68587376     0.33740446    -0.21827355     0.15131845     0.2154098      6.6861894      6.6861894      6.6861894      0              0              0              0.73601499   
     22100   1.0040611      0.73980451    -3.838303      -2.3559954     -0.0109313     -0.30352476     0.23086536     0.039865502   -0.015208005   -0.27030365    -0.2296931      6.6747535      6.6747535      6.6747535      0              0              0              0.73980451   
     22200   0.99852483     0.74466789    -3.8929841     -1.7803621      0.42129495     1.0923506     -0.14435034     0.31588454    -0.064100416    0.16733033    -0.1059278      6.660191       6.660191       6.660191       0              0              0              0.74466789   
     22300   1.0363789      0.74917617    -3.9837015     -2.6282613     -0.13032624    -0.57491393     0.19208716    -0.0081519427   0.51029713     0.50367439    -0.1559511      6.6468045      6.6468045      6.6468045      0              0              0              0.74917617   
     22400   0.96934774     0.7536402     -3.904917      -1.9164617      0.37113609     0.18343539     0.75741501     0.17255788    -0.057482612   -0.33241907     0.19975845     6.6336549      6.6336549      6.6336549      0              0              0              0.7536402    
     22500   1.0090789      0.75771923    -3.9784776     -1.7098638      0.52528089     0.43953817     0.9065612      0.22974329    -0.15056975    -0.13802069    -0.21956791     6.6217298      6.6217298      6.6217298      0              0              0              0.75771923   
     22600   0.99615559     0.76181616    -3.9767807     -2.5060081     -0.011073776   -0.42441408     0.33932959     0.051863168   -0.16376006     0.65718618    -0.64116702     6.6098383      6.6098383      6.6098383      0              0              0              0.76181616   
     22700   1.0239752      0.7664719     -4.0388467     -1.9503368      0.39036203     0.13921777     0.43398976     0.59787855    -0.051969655    0.060879031    0.22707739     6.5964278      6.5964278      6.5964278      0              0              0              0.7664719    
     22800   1.0551077      0.7709308     -4.1274401     -2.0031931      0.38511411     0.53151756     0.22587856     0.39794622    -0.097245088    0.48359471     0.20574219     6.5836858      6.5836858      6.5836858      0              0              0              0.7709308    
     22900   1.0371496      0.77437211    -4.1438123     -2.5958816     -1.065469e-05  -0.15540591     0.2766891     -0.12131515     0.14477203     0.095954311   -0.31929748     6.5739186      6.5739186      6.5739186      0              0              0              0.77437211   
     23000   1.0001227      0.77860193    -4.1350579     -2.0446782      0.42306155     0.42842231     0.45870379     0.38205855    -0.51473993    -0.0077169732  -0.0224558      6.5619926      6.5619926      6.5619926      0              0              0              0.77860193   
     23100   0.94328576     0.7829994     -4.0994786     -2.4177927      0.19491836    -0.038820503    0.44343725     0.18013834    -0.39503984     0.16125414    -0.2211174      6.5496851      6.5496851      6.5496851      0              0              0              0.7829994    
     23200   0.9566336      0.78734439    -4.16043       -2.6623196      0.050343327   -0.19188431     0.082702388    0.26021191     0.12098479    -0.30017474    -0.45133665     6.5376146      6.5376146      6.5376146      0              0              0              0.78734439   
     23300   0.93339662     0.79185222    -4.1525995     -1.9866571      0.5563467      0.066077623    1.0054369      0.59752559    -0.015020587   -0.15831957     0.11988106     6.5251853      6.5251853      6.5251853      0              0              0              0.79185222   
     23400   1.0326291      0.79544404    -4.3067273     -2.5697153      0.14159849     0.62526734    -0.3557864      0.15531454    -0.16374737    -0.053689346    0.15716433     6.515349       6.515349       6.515349       0              0              0              0.79544404   
     23500   0.95043062     0.79891691    -4.1751466     -2.0832354      0.48907769     0.49593203     0.39035601     0.58094502     0.30056322    -0.1331465      0.18999739     6.5058946      6.5058946      6.5058946      0              0              0              0.79891691   
     23600   0.99887881     0.80265015    -4.2168173     -2.0025193      0.52790408     0.12248719     1.2341415      0.22708357    -0.17125622     0.13899205     0.073585544    6.4957923      6.4957923      6.4957923      0              0              0              0.80265015   
     23700   1.0974727      0.80580295    -4.3172713     -1.9833846      0.50978662     0.93609948     0.23265336     0.36060703     0.11930181     0.37600283    -0.19588953     6.4873094      6.4873094      6.4873094      0              0              0              0.80580295   
     23800   1.1021813      0.80809697    -4.2801375     -2.4843078      0.11080047     0.12183862     0.18177956     0.028783224   -0.1272283     -0.23485664     0.26237004     6.4811649      6.4811649      6.4811649      0              0              0              0.80809697   
     23900   1.0381241      0.81091433    -4.1592722     -1.6033406      0.74200972     1.0047239      0.48379693     0.73750833     0.11439831     0.091240559   -0.39189749     6.4736503      6.4736503      6.4736503      0              0              0              0.81091433   
     24000   0.98745792     0.81250923    -4.0819177     -0.77059334     1.3572918      0.88522824     1.7039754      1.4826718      0.068273457    0.21251481     0.65620147     6.4694117      6.4694117      6.4694117      0              0              0              0.81250923   
     24100   0.99556328     0.81254858    -4.1188891     -0.81833672     1.3404645      1.1614544      1.6280222      1.2319169      0.3793321      0.32941924     0.55821354     6.4693073      6.4693073      6.4693073      0              0              0              0.81254858   
     24200   1.0100799      0.81209538    -4.1912655     -1.4361781      0.92102185     0.66103442     0.79344094     1.3085902     -0.22632209    -0.21017665    -0.0011920071   6.4705105      6.4705105      6.4705105      0              0              0              0.81209538   
     24300   0.98370987     0.81233385    -4.2217081     -1.9365388      0.60332944     0.9240173      0.39089674     0.49507427     0.08604698    -0.42484788     0.076665279    6.4698773      6.4698773      6.4698773      0              0              0              0.81233385   
     24400   0.9976243      0.81385171    -4.3137502     -2.068881       0.5592752      0.47029342     0.41158837     0.7959438     -0.23712363     0.34380905     0.32172297     6.4658526      6.4658526      6.4658526      0              0              0              0.81385171   
     24500   0.90758916     0.8158029     -4.2397912     -1.5654507      0.97878815     1.2796244      1.1830479      0.4736922     -0.22194907     0.28693442    -0.25708905     6.4606936      6.4606936      6.4606936      0              0              0              0.8158029    
     24600   1.0124601      0.81752904    -4.420199      -2.4927492      0.30943706     0.56201773     0.027583962    0.33870949    -0.091246461   -0.23431058    -0.21720937     6.4561433      6.4561433      6.4561433      0              0              0              0.81752904   
     24700   0.9563182      0.82000263    -4.3359466     -2.2511655      0.49012018     0.67431839     0.23270922     0.56333292    -0.15280532    -0.22155183    -0.12312053     6.449645       6.449645       6.449645       0              0              0              0.82000263   
     24800   0.89174893     0.82304933    -4.2281113     -1.6660713      0.92114542     0.38270643     1.310899       1.0698309      0.14673221    -0.80951274    -0.16224437     6.4416769      6.4416769      6.4416769      0              0              0              0.82304933   
     24900   1.0359962      0.82561362    -4.4181724     -2.1496192      0.54214963     0.27345035     0.38586674     0.96713181     0.0058470894  -0.11378865    -0.24600685     6.4350009      6.4350009      6.4350009      0              0              0              0.82561362   
     25000   1.0956214      0.82830381    -4.4918757     -2.2045255      0.49106009     0.60766257     0.43428336     0.43123435    -0.17342455    -0.098904129   -0.1498731      6.4280267      6.4280267      6.4280267      0              0              0              0.82830381   
     25100   0.99470999     0.83094351    -4.3350869     -1.3875626      1.1050941      1.323451       0.34123782     1.6505935      0.69281685    -0.29598371     0.48473869     6.4212128      6.4212128      6.4212128      0              0              0              0.83094351   
     25200   1.1009166      0.83193592    -4.4618878     -1.3604774      1.1029144      1.4035878      0.53684506     1.3683103      0.037977104    0.069906974    0.38108649     6.4186585      6.4186585      6.4186585      0              0              0              0.83193592   
     25300   1.0461413      0.83117437    -4.3449961     -1.0618681      1.3009859      1.2446961      0.98769868     1.6705629     -0.0074674683   0.050069375   -0.36028119     6.4206182      6.4206182      6.4206182      0              0              0              0.83117437   
     25400   1.0839711      0.83009089    -4.3735122     -1.4172186      1.0100446      1.3609182      0.72700806     0.94220743     0.17179216    -0.43377478    -0.10435263     6.4234105      6.4234105      6.4234105      0              0              0              0.83009089   
     25500   1.027512       0.82933904    -4.2868686     -1.3688451      1.0438076      1.6721425      0.42008878     1.0391915      0.065683948    0.51718645     0.45079102     6.425351       6.425351       6.425351       0              0              0              0.82933904   
     25600   1.0087608      0.82811585    -4.2847263     -1.1031715      1.2617318      1.3830434      1.2565014      1.1456505     -0.0082063105   0.21417816     0.29174632     6.428513       6.428513       6.428513       0              0              0              0.82811585   
     25700   1.0173201      0.82716326    -4.3335405     -1.6244848      0.89537076     0.62883358     1.6094157      0.44786304     0.40260206     0.047652961    0.21048589     6.4309798      6.4309798      6.4309798      0              0              0              0.82716326   
     25800   1.021576       0.82771055    -4.3987137     -2.0116508      0.64889553     0.92199091     0.37328336     0.65141231     0.38646935    -0.36526497     0.093283816    6.4295621      6.4295621      6.4295621      0              0              0              0.82771055   
     25900   0.91248859     0.82885067    -4.2848583     -1.5775744      1.0137557      0.95388236     1.2089559      0.87842881     0.15118652    -0.16192595    -0.37306789     6.4266127      6.4266127      6.4266127      0              0              0              0.82885067   
     26000   0.9021732      0.82993679    -4.3089056     -1.8336597      0.85163012     1.0253282      0.73420041     0.79536176     0.66152115    -0.27950575     0.32991114     6.423808       6.423808       6.423808       0              0              0              0.82993679   
     26100   0.95758295     0.831636      -4.4019039     -1.9222251      0.79420197     0.95174951     0.47762083     0.95323556     0.063208909   -0.83653655     0.28236648     6.41943        6.41943        6.41943        0              0              0              0.831636     
     26200   0.99674783     0.83286929    -4.4405355     -1.8017305      0.87160443     0.90236003     0.39141146     1.3210418     -0.23372534    -0.0086155228   0.66722352     6.4162599      6.4162599      6.4162599      0              0              0              0.83286929   
     26300   0.96967129     0.83356435    -4.3563027     -1.9557819      0.72238685     0.68687456     0.7119831      0.76830289     0.083675508   -0.42422716    -0.068715921    6.414476       6.414476       6.414476       0              0              0              0.83356435   
     26400   0.99299232     0.83444267    -4.3145849     -1.2100021      1.2308346      1.3101212      1.6388522      0.74353037     0.45072808    -0.66875578     0.15362158     6.4122246      6.4122246      6.4122246      0              0              0              0.83444267   
     26500   1.0734607      0.83511219    -4.3452587     -1.1968876      1.1738876      0.9840384      1.5569127      0.98071184     0.40452289    -0.33076259    -0.12391943     6.4105106      6.4105106      6.4105106      0              0              0              0.83511219   
     26600   1.1026532      0.83500222    -4.3440069     -0.62704345     1.5722739      1.7067057      1.0995579      1.910558      -0.10212955     0.25166327    -0.21988979     6.410792       6.410792       6.410792       0              0              0              0.83500222   
     26700   1.1521954      0.8334734     -4.423091      -1.139303       1.1851509      1.4892511      1.1464329      0.91976884     0.38329864     0.22238545    -0.33522696     6.4147093      6.4147093      6.4147093      0              0              0              0.8334734    
     26800   1.0668915      0.83162481    -4.3601024     -1.3495128      1.072232       0.6922564      1.205997       1.3184426      0.25604778     0.10534831    -0.29671821     6.4194588      6.4194588      6.4194588      0              0              0              0.83162481   
     26900   0.99526511     0.83013571    -4.3434731     -1.4006941      1.0998135      1.2216679      0.88467528     1.1930973      0.10549313    -0.38414108    -0.37592783     6.4232949      6.4232949      6.4232949      0              0              0              0.83013571   
     27000   1.0564876      0.82953717    -4.505987      -1.9822808      0.71407959     0.24835211     1.1577602      0.73612642     0.26556615     0.27620311     0.42394944     6.4248394      6.4248394      6.4248394      0              0              0              0.82953717   
     27100   0.95661172     0.83035481    -4.3926365     -2.6932944      0.20502149     0.35332788    -0.030665223    0.29240182     0.098331714    0.042204005   -0.49757833     6.4227299      6.4227299      6.4227299      0              0              0              0.83035481   
     27200   0.99489051     0.83292437    -4.4565291     -1.9943749      0.74000043     0.60743368     0.51695824     1.0956094      0.22303632    -0.33001757    -0.029487476    6.4161184      6.4161184      6.4161184      0              0              0              0.83292437   
     27300   0.96305426     0.83508505    -4.404884      -2.538584       0.32563877     0.56451227     0.7026327     -0.29022866    -0.16431605     0.087043621   -0.55047567     6.41058        6.41058        6.41058        0              0              0              0.83508505   
     27400   0.98739447     0.83782199    -4.4307398     -2.1485148      0.61582863     0.77434366     0.41059164     0.66255059     0.34117705    -0.4724082     -0.38695817     6.4035918      6.4035918      6.4035918      0              0              0              0.83782199   
     27500   1.0244734      0.84082767    -4.4724547     -1.5194528      1.0884708      0.90785667     0.6804149      1.6771407     -0.15423622    -0.089517917    0.057326138    6.3959525      6.3959525      6.3959525      0              0              0              0.84082767   
     27600   1.0056516      0.84297607    -4.4412734     -1.6955703      0.95391791     0.54241881     0.61875898     1.7005759     -0.4942738     -0.2632506      0.36463047     6.3905143      6.3905143      6.3905143      0              0              0              0.84297607   
[...]
    136000   0.10196307     0.27189781    -3.2212899     -6.4740254     -0.84162639    -1.9462221     -0.34585007    -0.23280694     0.0045365991   0.12359033    -0.067992484    23.072748      5.9218694      5.9218694      0              0              0              0.27189781   
    137000   0.10474271     0.26919238    -3.1427198     -6.5086096     -0.86195849    -1.9534058     -0.37015099    -0.26231867    -0.039406686    0.095417896    0.033678597    23.304633      5.9218694      5.9218694      0              0              0              0.26919238   
    138000   0.11131513     0.26651387    -3.1662274     -6.3007743     -0.79970754    -1.8144002     -0.36478929    -0.21993309    -0.031268596    0.12496938    -0.015895376    23.538848      5.9218694      5.9218694      0              0              0              0.26651387   
    139000   0.097300765    0.26386202    -3.1489051     -6.4988632     -0.83840466    -1.8174002     -0.44469433    -0.25311947     0.027272648    0.13013016     0.0085762464   23.775418      5.9218694      5.9218694      0              0              0              0.26386202   
    140000   0.22105135     0.26123655    -3.4339987     -4.8881006     -0.42368317    -0.74163841    -0.26435941    -0.2650517     -0.050417568    0.020336905    0.00075376113  24.014365      5.9218694      5.9218694      0              0              0              0.26123655   
    141000   0.10526291     0.2586372     -3.6728901     -5.2530534     -0.40847471    -0.61763032    -0.34204136    -0.26575245     0.011838993    0.028253441    0.0048005808   24.255713      5.9218694      5.9218694      0              0              0              0.2586372    
    142000   0.097498099    0.25606372    -3.7320484     -4.9891245     -0.32650267    -0.52851796    -0.2414549     -0.20953515    -0.13005587     0.020249524   -0.035823684    24.499487      5.9218694      5.9218694      0              0              0              0.25606372   
    143000   0.094490415    0.25351584    -3.7114611     -5.1018237     -0.35293772    -0.52919874    -0.26126352    -0.26835091     0.0018926284   0.041796555   -0.019061233    24.745711      5.9218694      5.9218694      0              0              0              0.25351584   
    144000   0.093797101    0.25099332    -3.6654622     -5.1735324     -0.37604787    -0.56692899    -0.28186075    -0.27935386    -0.07520247     0.026714988   -0.00058917033  24.994409      5.9218694      5.9218694      0              0              0              0.25099332   
    145000   0.10160807     0.24849589    -3.6571733     -5.2812317     -0.40114204    -0.66164775    -0.34955615    -0.19222222    -0.065157641    0.035440695    0.039127299    25.245607      5.9218694      5.9218694      0              0              0              0.24849589   
    146000   0.099085755    0.24602331    -3.6384221     -5.568612      -0.46477728    -0.75021615    -0.38695731    -0.25715839    -0.086553139    0.0094386968   0.022505689    25.49933       5.9218694      5.9218694      0              0              0              0.24602331   
    147000   0.10092768     0.24357534    -3.5845278     -5.3148518     -0.41650466    -0.68220941    -0.29555667    -0.27174789    -0.088883008    0.03901274    -0.013974236    25.755602      5.9218694      5.9218694      0              0              0              0.24357534   
    148000   0.11053542     0.24115173    -3.5530845     -5.2656314     -0.41160676    -0.75500102    -0.27307705    -0.20674221    -0.1460379      0.099727178    0.023871443    26.014451      5.9218694      5.9218694      0              0              0              0.24115173   
    149000   0.10264297     0.23875223    -3.5597262     -5.4493256     -0.4433833     -0.87137131    -0.26052218    -0.19825641    -0.15945092     0.056084577   -0.06690359     26.2759        5.9218694      5.9218694      0              0              0              0.23875223   
    150000   0.10123073     0.2363766     -3.4989467     -5.1781959     -0.39331693    -0.80120397    -0.1956861     -0.18306073    -0.14561493     0.017651332   -0.019098206    26.539977      5.9218694      5.9218694      0              0              0              0.2363766    
    151000   0.095520609    0.23402462    -3.4790758     -5.4438322     -0.44833178    -0.93513934    -0.1960348     -0.21382121    -0.1612223      0.048422613    0.021625677    26.806708      5.9218694      5.9218694      0              0              0              0.23402462   
    152000   0.088283208    0.23169603    -3.4614954     -5.9064592     -0.54274301    -1.0918879     -0.33752277    -0.19881839    -0.13834403     0.081744593   -0.026237156    27.07612       5.9218694      5.9218694      0              0              0              0.23169603   
    153000   0.10083728     0.22939062    -3.401272      -5.8515663     -0.54236158    -1.1545343     -0.2832883     -0.18926218    -0.18190667     0.0042351281  -0.019986428    27.34824       5.9218694      5.9218694      0              0              0              0.22939062   
    154000   0.10620727     0.22710814    -3.3579178     -5.9812775     -0.57435115    -1.2371439     -0.28855743    -0.19735216    -0.17273486     0.085315381    0.034562345    27.623094      5.9218694      5.9218694      0              0              0              0.22710814   
    155000   0.096050957    0.22484838    -3.2973728     -6.2303935     -0.62883485    -1.2960289     -0.32882808    -0.26164753    -0.17602899     0.022710086   -0.027633041    27.900711      5.9218694      5.9218694      0              0              0              0.22484838   
    156000   0.22103658     0.2226111     -3.5979574     -4.736092      -0.29709105    -0.44720203    -0.22816678    -0.21590432    -0.047522272    0.018790306    0.030888437    28.181118      5.9218694      5.9218694      0              0              0              0.2226111    
    157000   0.10162755     0.22039608    -3.9089194     -4.3709478     -0.12296247    -0.036228667   -0.14962083    -0.18303791     0.025892997   -0.018776211    0.036955378    28.464343      5.9218694      5.9218694      0              0              0              0.22039608   
    158000   0.10301181     0.21820311    -3.9899376     -4.1770862     -0.067621886    0.078947185   -0.13507042    -0.14674243     0.046246213    0.0068422328  -0.029694037    28.750414      5.9218694      5.9218694      0              0              0              0.21820311   
    159000   0.091880477    0.21603195    -4.0565369     -4.1244514     -0.040269547    0.076170601   -0.0874162     -0.10956304    -0.0171286     -0.014529211   -0.0081600529   29.039361      5.9218694      5.9218694      0              0              0              0.21603195   
    160000   0.09744576     0.21388239    -4.076159      -4.3493824     -0.081403884    0.08237651    -0.19590393    -0.13068423     0.017975108   -0.014869025    0.00029073175  29.331211      5.9218694      5.9218694      0              0              0              0.21388239   
    161000   0.090618913    0.21175423    -4.1046232     -4.4640639     -0.09522962     0.042423676   -0.14238134    -0.1857312      0.034105569    0.021458019    0.0073303225   29.625995      5.9218694      5.9218694      0              0              0              0.21175423   
    162000   0.10683653     0.20964724    -4.1336645     -4.4660875     -0.093745961   -0.029180217   -0.12956844    -0.12248922    -0.0034237355  -0.008566015   -0.015000863    29.923741      5.9218694      5.9218694      0              0              0              0.20964724   
    163000   0.097758413    0.20756121    -4.1617313     -4.3355025     -0.060320225    0.036729866   -0.1064158     -0.11127474    -0.010492176   -0.024324047    0.0095029515   30.224479      5.9218694      5.9218694      0              0              0              0.20756121   
    164000   0.11372244     0.20549595    -4.1494062     -4.29726       -0.059329385    0.041457361   -0.088384259   -0.13106126     0.0081980188   0.017463825    0.010689559    30.52824       5.9218694      5.9218694      0              0              0              0.20549595   
    165000   0.10310565     0.20345123    -4.2108735     -4.1987052     -0.026211339    0.025802391   -0.010547896   -0.093888513   -0.015567557   -0.01663824     0.010111152    30.835054      5.9218694      5.9218694      0              0              0              0.20345123   
    166000   0.09139422     0.20142685    -4.2546807     -4.3748807     -0.046988465    0.085783962   -0.093460992   -0.13328837     0.0015033802  -0.011111561    0.020822073    31.144952      5.9218694      5.9218694      0              0              0              0.20142685   
    167000   0.10883467     0.19942262    -4.280727      -4.4183728     -0.054402779    0.065173545   -0.098794681   -0.1295872     -0.029417971    0.0067960689  -0.019051794    31.457964      5.9218694      5.9218694      0              0              0              0.19942262   
    168000   0.095671228    0.19743833    -4.3220604     -4.6854649     -0.090856422   -0.0380627     -0.1277129     -0.10679367     0.062247083    0.050200032   -0.010595531    31.774122      5.9218694      5.9218694      0              0              0              0.19743833   
    169000   0.10714905     0.19547379    -4.3300104     -4.9638602     -0.14105562    -0.11382766    -0.1436796     -0.16565959     0.0017125907   0.020501571    0.0070193973   32.093457      5.9218694      5.9218694      0              0              0              0.19547379   
    170000   0.10810118     0.19352879    -4.3561706     -4.6861224     -0.086435738    0.03495663    -0.15609412    -0.13816972    -0.022320939   -0.0091392008   0.0011135957   32.416001      5.9218694      5.9218694      0              0              0              0.19352879   
    171000   0.10183822     0.19160315    -4.3382277     -4.6782823     -0.085707242    0.0012554024  -0.046117628   -0.2122595     -0.010509644    0.01979451     0.0079596659   32.741788      5.9218694      5.9218694      0              0              0              0.19160315   
    172000   0.093643978    0.18969667    -4.3579755     -5.0801762     -0.14864705    -0.026997418   -0.17960499    -0.23933874     0.0026281886   0.0054968065   0.016336416    33.070848      5.9218694      5.9218694      0              0              0              0.18969667   
    173000   0.10087678     0.18780915    -4.3623128     -5.0309988     -0.13987421    -0.031084935   -0.16072071    -0.22781697     0.0094730388   0.00081507921  0.0074141295   33.403216      5.9218694      5.9218694      0              0              0              0.18780915   
    174000   0.10171632     0.18594042    -4.3710132     -4.7412223     -0.088240684    0.0054797934  -0.112377      -0.15782485     0.016090082    0.041051665    0.017054038    33.738924      5.9218694      5.9218694      0              0              0              0.18594042   
    175000   0.10552234     0.18409028    -4.4149723     -5.0639877     -0.13497289     0.021864205   -0.16841734    -0.25836553    -0.011020263   -0.0079592352  -0.0042770497   34.078005      5.9218694      5.9218694      0              0              0              0.18409028   
    176000   0.10411899     0.18225855    -4.4662707     -4.8801753     -0.094327447    0.052082119   -0.20203098    -0.13303348    -9.9067991e-05 -0.0097206461   0.042011707    34.420495      5.9218694      5.9218694      0              0              0              0.18225855   
    177000   0.10582139     0.18044505    -4.4628391     -5.2165469     -0.14954732    -0.031896969   -0.15085225    -0.26589274     0.00025833137 -0.0061196861  -0.0014559326   34.766427      5.9218694      5.9218694      0              0              0              0.18044505   
    178000   0.11260968     0.17864959    -4.5134222     -5.0998988     -0.12254494    -0.052713304   -0.16245761    -0.1524639      0.017940302   -0.0042513562   0.016317062    35.115835      5.9218694      5.9218694      0              0              0              0.17864959   
    179000   0.092279281    0.176872      -4.5389666     -5.2019577     -0.12874961    -0.029627788   -0.17371195    -0.18290908    -0.011813594    0.02606582     0.053001523    35.468755      5.9218694      5.9218694      0              0              0              0.176872     
    180000   0.1040384      0.17511209    -4.5817307     -4.9302217     -0.080196283   -0.031274801   -0.059791354   -0.14952269     0.016313351   -0.016675928    0.084781736    35.825222      5.9218694      5.9218694      0              0              0              0.17511209   
    181000   0.10507408     0.1733697     -4.6649456     -4.7674307     -0.040869251   -0.011451634    0.038725571   -0.14988169    -0.041659167   -0.0095368165  -0.0063161437   36.185272      5.9218694      5.9218694      0              0              0              0.1733697    
    182000   0.098345145    0.17164464    -4.7058194     -5.0772177     -0.080856873    0.020166738   -0.016778719   -0.24595864     0.033360103    0.00078045174 -0.025874132    36.54894       5.9218694      5.9218694      0              0              0              0.17164464   
    183000   0.10211111     0.16993675    -4.6984611     -5.1289076     -0.090042886   -0.046041592   -0.062786836   -0.16130023    -0.0075108423  -0.047587516   -0.020907595    36.916263      5.9218694      5.9218694      0              0              0              0.16993675   
    184000   0.09411239     0.16824585    -4.7178587     -5.1182439     -0.082723123   -0.030991943   -0.055686364   -0.16149106     0.0089463007   0.027512251   -0.0035529315   37.287277      5.9218694      5.9218694      0              0              0              0.16824585   
    185000   0.090439402    0.16657178    -4.7074285     -4.9337955     -0.05471849     0.02460975    -0.033442948   -0.15532227     0.0072455992   0.030804663    0.039077884    37.662021      5.9218694      5.9218694      0              0              0              0.16657178   
    186000   0.10731589     0.16491436    -4.718966      -4.9104683     -0.052723308    0.035118748   -0.045757163   -0.14753151    -0.014119196    0.0022358542   0.016736277    38.04053       5.9218694      5.9218694      0              0              0              0.16491436   
    187000   0.093406919    0.16327343    -4.7226464     -5.0144707     -0.064008255   -0.017197087   -0.023326784   -0.15150089     0.004758972    0.014434835    0.017615174    38.422844      5.9218694      5.9218694      0              0              0              0.16327343   
    188000   0.10326106     0.16164884    -4.7208683     -5.0664542     -0.073433094   -0.028861076   -0.012385976   -0.17905223     0.0028991747  -0.018676716    0.029933947    38.809         5.9218694      5.9218694      0              0              0              0.16164884   
    189000   0.10450536     0.1600404     -4.720574      -4.9578288     -0.057211394    0.018281467   -0.0054786957  -0.18443695     0.0011882353   0.010158121    0.043666817    39.199037      5.9218694      5.9218694      0              0              0              0.1600404    
    190000   0.097668942    0.15844797    -4.7336367     -5.1167508     -0.076182505   -0.026128252   -0.024192404   -0.17822686     0.011742469    0.0039988538   0.027008952    39.592994      5.9218694      5.9218694      0              0              0              0.15844797   
    191000   0.10772601     0.15687139    -4.7227952     -5.0149514     -0.064593541    0.041234876   -0.074195008   -0.16082049     0.010616803   -0.020510233    0.026734385    39.99091       5.9218694      5.9218694      0              0              0              0.15687139   
    192000   0.096427612    0.15531049    -4.7189859     -4.7426978     -0.023667923    0.080662233    0.012102462   -0.16376847     0.018335804   -0.016565488    0.0042424032   40.392825      5.9218694      5.9218694      0              0              0              0.15531049   
    193000   0.092268674    0.15376513    -4.7165799     -5.0507475     -0.065962254    0.02485224    -0.041223014   -0.18151599    -0.028547102    0.0022894973   0.029852294    40.79878       5.9218694      5.9218694      0              0              0              0.15376513   
    194000   0.1061939      0.15223514    -4.7132005     -5.1723241     -0.085475612    0.003086453   -0.065433537   -0.19407975     0.014838946   -0.0081639661   0.015193152    41.208814      5.9218694      5.9218694      0              0              0              0.15223514   
    195000   0.10522271     0.15072038    -4.7352813     -5.5115295     -0.12787845    -0.032617222   -0.10776561    -0.24325251     0.010840945    0.011482145   -0.009654058    41.62297       5.9218694      5.9218694      0              0              0              0.15072038   
    196000   0.10026399     0.14922068    -4.7364687     -5.4736009     -0.12029577    -0.071911832   -0.072168852   -0.21680664     0.019443866   -0.020323356    0.013368755    42.041288      5.9218694      5.9218694      0              0              0              0.14922068   
    197000   0.12544944     0.14773591    -4.7312573     -4.9402398     -0.053213911    0.046187452   -0.060273111   -0.14555607    -0.009212437   -0.041044664    0.012796793    42.46381       5.9218694      5.9218694      0              0              0              0.14773591   
    198000   0.099521925    0.14626592    -4.7402952     -4.825874      -0.031130077    0.036926732    0.012809786   -0.14312675     0.0066562331  -0.023139639    0.017736995    42.890578      5.9218694      5.9218694      0              0              0              0.14626592   
    199000   0.10708567     0.14481055    -4.7238039     -5.0278287     -0.061063999   -0.0082133158  -0.039707889   -0.13527079     0.0033493424   0.015440239   -0.00040265566  43.321635      5.9218694      5.9218694      0              0              0              0.14481055   
    200000   0.097394447    0.14336966    -4.7266914     -5.4333222     -0.11104529    -0.042620348   -0.087156821   -0.20335869    -0.026615794    0.019593029   -0.018820986    43.757025      5.9218694      5.9218694      0              0              0              0.14336966   
Loop time of 25.7725 on 2 procs for 200000 steps with 200 atoms

Performance: 1340962.603 tau/day, 7760.200 timesteps/s
81.1% CPU use with 2 MPI tasks x 1 OpenMP threads

MPI task timing breakdown:
Section |  min time  |  avg time  |  max time  |%varavg| %total
---------------------------------------------------------------
Pair    | 5.1885     | 5.7681     | 6.3477     |  24.1 | 22.38
Bond    | 0.2333     | 0.27022    | 0.30714    |   7.1 |  1.05
Neigh   | 0.14745    | 0.14746    | 0.14746    |   0.0 |  0.57
Comm    | 4.546      | 5.1112     | 5.6765     |  25.0 | 19.83
Output  | 0.035848   | 0.036472   | 0.037096   |   0.3 |  0.14
Modify  | 13.987     | 14.029     | 14.07      |   1.1 | 54.43
Other   |            | 0.4105     |            |       |  1.59

Nlocal:            100 ave         110 max          90 min
Histogram: 1 0 0 0 0 0 0 0 0 1
Nghost:          646.5 ave         688 max         605 min
Histogram: 1 0 0 0 0 0 0 0 0 1
Neighs:           5785 ave        5857 max        5713 min
Histogram: 1 0 0 0 0 0 0 0 0 1

Total # of neighbors = 11570
Ave neighs/atom = 57.85
Ave special neighs/atom = 9.81
Neighbor list builds = 498
Dangerous builds = 0
System init for write_data ...
Generated 0 of 1 mixed pair_coeff terms from geometric mixing rule
WARNING: Not all mixed pair coeffs generated from mixing. Use write_data with 'pair ij' option to store all pair coeffs. (src/write_data.cpp:309)
Total wall time: 0:00:25
