LAMMPS (23 Jun 2022)
OMP_NUM_THREADS environment is not set. Defaulting to 1 thread. (src/comm.cpp:98)
  using 1 OpenMP thread(s) per MPI task
Reading data file ...
  orthogonal box = (96.950857 96.950857 96.950857) to (103.04914 103.04914 103.04914)
  1 by 1 by 2 MPI processor grid
  reading atoms ...
  200 atoms
  scanning bonds ...
  4 = max bonds/atom
  reading bonds ...
  224 bonds
Finding 1-2 1-3 1-4 neighbors ...
  special bond factors lj:    0        0        0       
  special bond factors coul:  0        0        0       
     4 = max # of 1-2 neighbors
     4 = max # of 1-3 neighbors
    10 = max # of 1-4 neighbors
    12 = max # of special neighbors
  special bonds CPU = 0.000 seconds
  read_data CPU = 0.004 seconds
Finding 1-2 1-3 1-4 neighbors ...
  special bond factors lj:    0        1        1       
  special bond factors coul:  0        0        0       
     4 = max # of 1-2 neighbors
     4 = max # of 1-3 neighbors
    10 = max # of 1-4 neighbors
    12 = max # of special neighbors
  special bonds CPU = 0.000 seconds
Generated 0 of 1 mixed pair_coeff terms from geometric mixing rule
Neighbor list info ...
  update every 1 steps, delay 0 steps, check yes
  max neighbors/atom: 2000, page size: 100000
  master list distance cutoff = 5.5
  ghost atom cutoff = 5.5
  binsize = 2.75, bins = 3 3 3
  1 neighbor lists, perpetual/occasional/extra = 1 0 0
  (1) pair lj/cut, perpetual
      attributes: half, newton on
      pair build: half/bin/newton
      stencil: half/bin/3d
      bin: standard
Setting up Verlet run ...
  Unit style    : lj
  Current step  : 0
  Time step     : 0.002
WARNING: Inconsistent image flags (src/domain.cpp:819)
Per MPI rank memory allocation (min/avg/max) = 8.647 | 8.647 | 8.647 Mbytes
   Step          Temp         Density         PotEng        Enthalpy        Press           Pxx            Pyy            Pzz            Pxy            Pxz            Pyz             Lx             Ly             Lz             Xy             Yz             Xz          Density    
         0   1.5            0.97006166    -4.4593972      1.2661213      3.0748913      2.1466511      3.5018837      3.5761392     -0.041817648    0.21091927     0.10521843     6.0982859      6.0982859      6.0982859      0              0              0              0.97006166   
      1000   1.4812002      0.82157757    -3.1390797      0.65925261     1.1857911      1.1177379      0.98289302     1.4567425     -0.14450708    -0.49483898    -0.01758306     6.4455211      6.4455211      6.4455211      0              0              0              0.82157757   
      2000   1.4857902      0.76725156    -2.7751254     -0.94890375    -0.27294645    -0.55217241    -0.4455752      0.17890825     0.87148312     0.053092402    0.23081546     6.5941927      6.5941927      6.5941927      0              0              0              0.76725156   
      3000   1.5192166      0.8103625     -2.8596921      1.1074966      1.2522001      1.3676976      0.84419506     1.5447076     -0.27428014     0.1747776      0.027485515    6.4751194      6.4751194      6.4751194      0              0              0              0.8103625    
      4000   1.4421616      0.79975899    -2.7018924      2.0224617      1.8699295      1.9010609      1.8018973      1.9068304      0.4991988     -0.72420488    -0.86734884     6.5036104      6.5036104      6.5036104      0              0              0              0.79975899   
      5000   1.4022858      0.79108286    -2.8451938      0.30091237     0.75742208     0.68687665     0.42390017     1.1614894      0.18911747     0.54258276    -0.0033936514   6.5272999      6.5272999      6.5272999      0              0              0              0.79108286   
      6000   1.3782753      0.80056213    -3.0653552     -0.11589335     0.64946401     0.31487945     0.86153968     0.7719729      0.15610805    -0.38974769    -0.37358201     6.5014348      6.5014348      6.5014348      0              0              0              0.80056213   
      7000   1.3873664      0.81038229    -3.0091356      0.46948712     1.0372733      1.1305439      0.79508753     1.1861886     -0.1378556     -0.27280546     0.36869945     6.4750667      6.4750667      6.4750667      0              0              0              0.81038229   
      8000   1.5018309      0.8115124     -3.0222533      0.28820135     0.78862181     0.63064102     0.83920563     0.89601877    -0.2685069     -0.078095164    0.093317118    6.4720596      6.4720596      6.4720596      0              0              0              0.8115124    
      9000   1.3237406      0.80478732    -2.9334879      0.97714707     1.4156591      1.5928353      0.75792761     1.8962143     -0.070677371   -0.10929793     0.2659005      6.4900372      6.4900372      6.4900372      0              0              0              0.80478732   
     10000   1.3452201      0.81814766    -3.1616005     -0.45321551     0.52111838     0.4151356      0.76719284     0.3810267      0.18459943    -0.38248383    -0.37013562     6.4545157      6.4545157      6.4545157      0              0              0              0.81814766   
     11000   1.3593161      0.80993775    -3.0148422      0.66607482     1.2164807      1.873204       1.2432389      0.53299914     0.35323673    -0.44903232     0.58730017     6.4762511      6.4762511      6.4762511      0              0              0              0.80993775   
     12000   1.51022        0.8157029     -2.9465476      0.65309625     0.99785715     1.2172407      0.49075034     1.2855805      0.43195051    -0.23991261    -0.88712179     6.4609576      6.4609576      6.4609576      0              0              0              0.8157029    
     13000   1.319652       0.82149552    -3.0126999     -0.26657845     0.57993165     0.62213604     0.49911733     0.61854157     0.53397822     0.67976365    -0.047761265    6.4457357      6.4457357      6.4457357      0              0              0              0.82149552   
     14000   1.2795012      0.7860555     -2.9222183     -0.7524352      0.18588604     0.27496884     0.21101303     0.071676235    0.082101299    0.6786166     -0.10140686     6.5411859      6.5411859      6.5411859      0              0              0              0.7860555    
     15000   1.3288278      0.84991751    -3.2460207      0.82641299     1.6141929      1.6326715      1.3036092      1.9062981      0.21176974     0.35680777     0.54440992     6.3730692      6.3730692      6.3730692      0              0              0              0.84991751   
     16000   1.3530735      0.80990603    -3.1802921     -0.41602127     0.54838639     0.16066905     0.1858964      1.2985937     -0.13964738    -0.43901063    -0.30720555     6.4763357      6.4763357      6.4763357      0              0              0              0.80990603   
     17000   1.3663973      0.81485379    -3.2464139     -1.6879435     -0.35622262     0.049531743   -0.65244419    -0.46575542    -0.37366719     0.35580652    -0.12862422     6.463201       6.463201       6.463201       0              0              0              0.81485379   
     18000   1.3448403      0.84631954    -3.3225193      0.58423396     1.4615008      1.7173044      1.4952962      1.1719018      0.41434685    -0.046402428   -0.064998728    6.3820878      6.3820878      6.3820878      0              0              0              0.84631954   
     19000   1.2603092      0.81030362    -3.015532      -0.36200482     0.56906572     0.57837875    -0.23830841     1.3671268     -0.94474624    -0.092535073   -0.69027235     6.4752763      6.4752763      6.4752763      0              0              0              0.81030362   
     20000   1.2022125      0.82295103    -3.1899189      0.46389944     1.3911734      1.0597682      1.3700848      1.7436673     -0.090510329    0.024230351   -0.2381388      6.4419334      6.4419334      6.4419334      0              0              0              0.82295103   
     21000   1.265403       0.83067179    -3.2249711      0.13247638     1.1091986      1.1670025      0.7398555      1.4207379      0.12939686    -0.27340122    -0.28452991     6.4219128      6.4219128      6.4219128      0              0              0              0.83067179   
     22000   1.3154912      0.81845105    -3.1234316      0.47810231     1.2188695      1.5958918      1.1863813      0.87433536     0.43180975     0.14680147     0.18011809     6.4537181      6.4537181      6.4537181      0              0              0              0.81845105   
     23000   1.3261916      0.83826773    -3.257427       0.36086313     1.2489801      1.1984363      1.4726208      1.0758833      0.16685371     0.33415506    -0.032390476    6.4024566      6.4024566      6.4024566      0              0              0              0.83826773   
     24000   1.2406035      0.84937069    -3.4936277      0.042732372    1.3008956      1.5991977      1.1429346      1.1605545     -0.34439211     0.22103193     0.60178342     6.3744366      6.3744366      6.3744366      0              0              0              0.84937069   
     25000   1.2109311      0.81749412    -3.1270929      0.40203534     1.2796114      1.2996853      1.0432176      1.4959312      0.064297232    0.76374624    -0.51499332     6.4562353      6.4562353      6.4562353      0              0              0              0.81749412   
     26000   1.3602931      0.849716      -3.3602449      1.149672       1.9154758      1.9802119      1.864608       1.9016074     -0.010318806   -0.15172644    -0.58030192     6.3735729      6.3735729      6.3735729      0              0              0              0.849716     
     27000   1.2510183      0.82296645    -3.3880446     -0.94454243     0.43120258     0.42461693     0.69844159     0.17054922    -0.090461081    0.19378206    -0.0027780469   6.4418931      6.4418931      6.4418931      0              0              0              0.82296645   
     28000   1.2287614      0.8360222     -3.3114312     -0.42864021     0.79715831     1.3450686      0.53216006     0.51424623     0.77232307    -0.035004805    0.15811139     6.4081838      6.4081838      6.4081838      0              0              0              0.8360222    
     29000   1.2849039      0.83692689    -3.3794651     -0.85563479     0.46115523    -0.053702496    1.3518273      0.085340831    0.18447492    -0.033242049    0.056852732    6.4058739      6.4058739      6.4058739      0              0              0              0.83692689   
     30000   1.1642413      0.84272934    -3.3976707     -0.54220595     0.85639276     0.56682373     1.3286908      0.67366375    -0.44283741    -0.2956851      0.1595259      6.3911379      6.3911379      6.3911379      0              0              0              0.84272934   
     31000   1.2591936      0.83239755    -3.3525392     -0.53559167     0.70950629    -0.12764819     1.1566981      1.099469       0.38958523     0.25087146    -0.10821388     6.4174717      6.4174717      6.4174717      0              0              0              0.83239755   
     32000   1.2180946      0.83226769    -3.228559      -0.11717634     0.97857771     1.0509654      1.1377934      0.74697431     0.025266737    0.67433383    -0.22497391     6.4178055      6.4178055      6.4178055      0              0              0              0.83226769   
     33000   1.2200097      0.87873026    -3.7016501      0.14170162     1.6156552      2.3142799      1.2084474      1.3242385      0.34378296     0.70902623    -0.34775152     6.302638       6.302638       6.302638       0              0              0              0.87873026   
     34000   1.189162       0.85201007    -3.4040727     -0.53165315     0.8501475      0.46863294     1.2242961      0.8575135     -0.15058952     0.097916678   -0.63602437     6.3678475      6.3678475      6.3678475      0              0              0              0.85201007   
     35000   1.092806       0.85401362    -3.5063844     -1.1772665      0.54199192     0.50598842     0.18490342     0.93508392    -0.071997483    0.23786695     0.45673863     6.3628638      6.3628638      6.3628638      0              0              0              0.85401362   
     36000   1.0275786      0.86731213    -3.4951149     -0.70446277     0.9910942      0.9840335      1.3054355      0.68381365    -0.55952239    -0.26421639     0.28773772     6.3301755      6.3301755      6.3301755      0              0              0              0.86731213   
     37000   1.1120497      0.83671925    -3.4797898     -1.3639931      0.34690569     0.57493677    -0.18274242     0.64852271    -0.29173806    -0.11922609    -0.14967359     6.4064038      6.4064038      6.4064038      0              0              0              0.83671925   
     38000   1.116703       0.86133053    -3.4393087     -0.52343        0.97815787     1.6602968     -0.1068378      1.3810146      0.72569742     0.0041883991   0.38894108     6.3447953      6.3447953      6.3447953      0              0              0              0.86133053   
     39000   1.0036688      0.86678036    -3.7546974     -1.4045098      0.67152778     0.51463475     0.1382005      1.3617481     -0.71271848     0.15171599    -0.28133333     6.3314698      6.3314698      6.3314698      0              0              0              0.86678036   
     40000   1.1217219      0.84808497    -3.5551327     -1.0701657      0.62511356     0.42509655     0.62462258     0.82562155     0.072510939   -0.14559877     0.35318665     6.3776562      6.3776562      6.3776562      0              0              0              0.84808497   
     41000   1.0952243      0.83486108    -3.3424402     -0.38927959     1.0007239      0.62183906     1.2066404      1.1736922      0.26739082    -0.15787148    -0.32712615     6.4111532      6.4111532      6.4111532      0              0              0              0.83486108   
     42000   1.0361636      0.87210603    -3.6513526     -0.71321146     1.1033465      1.0703827      1.377602       0.86205477     0.041219427    0.15526302    -0.71345606     6.3185554      6.3185554      6.3185554      0              0              0              0.87210603   
     43000   1.0460896      0.8673323     -3.6343812     -0.70385223     1.0796239      0.49759491     1.8612303      0.88004652    -0.42058012    -0.37011082     0.11614073     6.3301265      6.3301265      6.3301265      0              0              0              0.8673323    
     44000   1.0133153      0.85665215    -3.6731633     -1.6170213      0.42347346     0.13915218     0.71203176     0.41923643    -0.16157754    -0.13009878     0.15054591     6.3563245      6.3563245      6.3563245      0              0              0              0.85665215   
     45000   1.1528056      0.86451031    -3.5816027     -0.41594767     1.1357251      1.1072212      1.1958542      1.1040997     -0.47233997    -0.27466318    -0.34478214     6.3370067      6.3370067      6.3370067      0              0              0              0.86451031   
     46000   1.092751       0.88258428    -3.695302      -0.13418757     1.5486815      0.93707428     1.4553093      2.253661       0.32640815     0.66676847     0.92878786     6.2934507      6.2934507      6.2934507      0              0              0              0.88258428   
     47000   0.97015594     0.87955454    -3.8284388     -1.285615       0.87544944     1.0733022     -0.064676724    1.6177228     -0.71619343    -0.1969054     -0.4352906      6.3006686      6.3006686      6.3006686      0              0              0              0.87955454   
     48000   1.0109514      0.86727942    -3.7325764     -1.7314271      0.38815039    -0.40571804     0.3060071      1.2641621     -0.48861166    -0.2371802      0.23530818     6.3302551      6.3302551      6.3302551      0              0              0              0.86727942   
     49000   0.99113052     0.86389929    -3.5292285     -1.0038717      0.82156388     0.35178224     0.36997465     1.7429348     -0.52339397     0.51487514     0.2487542      6.3385004      6.3385004      6.3385004      0              0              0              0.86389929   
     50000   0.93888127     0.89370072    -3.8125837     -0.97335334     1.16827        1.2592827      0.79560013     1.4499271     -0.48466115    -0.71829425     0.11817135     6.2672477      6.2672477      6.2672477      0              0              0              0.89370072   
     51000   0.91647101     0.86601654    -3.7220584     -1.2634128      0.85878348     1.0777298      0.051416113    1.4472045      0.26740167     0.23300225     0.47634343     6.3333307      6.3333307      6.3333307      0              0              0              0.86601654   
     52000   1.0406149      0.89360542    -3.7483185     -0.10338515     1.6993253      1.7427806      2.0760574      1.279138       0.0702567      0.20359157    -0.66782542     6.2674705      6.2674705      6.2674705      0              0              0              0.89360542   
     53000   0.91049806     0.8969342     -3.8052079     -0.60824225     1.498734       1.6464797      1.063456       1.7862664     -0.15015414     0.048119801   -0.014937799    6.2597074      6.2597074      6.2597074      0              0              0              0.8969342    
     54000   0.96671483     0.88653582    -3.9807869     -1.8663377      0.54129238     0.20325151     1.7143704     -0.29374472    -0.077848031    0.054462841   -0.18594408     6.2840862      6.2840862      6.2840862      0              0              0              0.88653582   
     55000   0.97940426     0.92314589    -4.0552541     -0.45525146     1.7944628      1.6858351      1.2607685      2.4367847      0.38787599     0.11414989    -0.35074625     6.1998918      6.1998918      6.1998918      0              0              0              0.92314589   
     56000   0.98943379     0.88520589    -3.9510141     -1.7389568      0.59174197     1.0345538      0.69317342     0.047498743    0.97369845     0.18581419     0.3857823      6.2872316      6.2872316      6.2872316      0              0              0              0.88520589   
     57000   0.93252092     0.91672649    -4.1292815     -1.8244242      0.7609412      0.97614659     0.60576063     0.70091638    -0.18427785     0.45330919     0.093186607    6.2143298      6.2143298      6.2143298      0              0              0              0.91672649   
     58000   0.91473914     0.89490535    -3.827789      -1.5029119      0.78070649     0.71046419     0.67914869     0.95250659    -0.44601435     0.1885721      0.22954537     6.2644343      6.2644343      6.2644343      0              0              0              0.89490535   
     59000   0.89019066     0.91858375    -4.049937      -1.1249867      1.3330661      1.5441097      1.3828826      1.0722058     -0.64451972     0.40867916    -0.16903144     6.2101388      6.2101388      6.2101388      0              0              0              0.91858375   
     60000   0.84389791     0.88587318    -4.0632183     -2.4760646      0.26385822     1.0350059     -0.11461452    -0.12881677     0.058404365   -0.084293365   -0.11838352     6.2856526      6.2856526      6.2856526      0              0              0              0.88587318   
     61000   0.87295864     0.91306291    -4.0109164     -1.7085524      0.82961996     1.0962962      0.35438705     1.0381766     -0.3482179      0.24840756     0.20419813     6.2226302      6.2226302      6.2226302      0              0              0              0.91306291   
     62000   0.81491116     0.92249744    -4.0896656     -0.98863608     1.5806362      1.6105512      1.9758476      1.1555096      0.10679181    -0.075536426   -0.3225789      6.2013442      6.2013442      6.2013442      0              0              0              0.92249744   
     63000   0.82702059     0.9395443     -4.2967693     -2.5803403      0.41177732     0.2615999     -0.045159613    1.0188917      0.84332555     0.30681812    -0.098480745    6.1636098      6.1636098      6.1636098      0              0              0              0.9395443    
     64000   0.88258962     0.90370846    -4.0593953     -2.2371304      0.4148842      0.89438682    -0.023475609    0.37374138    -0.16193351     0.067242308   -0.30172975     6.2440271      6.2440271      6.2440271      0              0              0              0.90370846   
     65000   0.92104615     0.91211573    -4.2578907     -1.8107757      0.8892744      0.40811951     1.1384024      1.1213012     -1.0454806     -0.20489341     0.040852457    6.2247834      6.2247834      6.2247834      0              0              0              0.91211573   
     66000   0.86658145     0.92198085    -4.4249203     -2.5284918      0.50545977     0.020545317    0.8558659      0.63996809    -0.32871277     0.065350719    0.29533971     6.2025022      6.2025022      6.2025022      0              0              0              0.92198085   
     67000   0.84209937     0.9102949     -4.2128122     -2.0839202      0.72166413     0.47412977     0.97432659     0.71653603    -0.44026764     0.46577258     0.057264266    6.2289311      6.2289311      6.2289311      0              0              0              0.9102949    
     68000   0.85672857     0.95551408    -4.348967      -1.3548408      1.4901318      1.5755863      1.3609547      1.5338544     -0.51575021    -0.80723215     0.13860924     6.1290787      6.1290787      6.1290787      0              0              0              0.95551408   
     69000   0.82981419     0.90936218    -4.1838364     -1.9728229      0.80397189     1.1291563      1.1265395      0.15621985     0.55885783     0.73459664    -0.75072683     6.23106        6.23106        6.23106        0              0              0              0.90936218   
     70000   0.79338717     0.92889543    -4.358478      -2.3330584      0.71042701     1.1191951      0.27574079     0.73634512    -0.22350439     0.043737439   -0.1237054      6.1870736      6.1870736      6.1870736      0              0              0              0.92889543   
     71000   0.7637461      0.91902402    -4.3285171     -2.8975067      0.24322333     0.027843255    0.8585011     -0.15667438     0.074483933   -0.71474187    -0.33559798     6.209147       6.209147       6.209147       0              0              0              0.91902402   
     72000   0.82700512     0.93961191    -4.3439846     -1.5417891      1.3392805      0.50136398     2.0138788      1.5025986     -0.3447242      0.36447393    -0.28091939     6.163462       6.163462       6.163462       0              0              0              0.93961191   
     73000   0.76400251     0.94385261    -4.4641643     -2.2508074      0.92075661     1.1408365      0.91012948     0.71130382    -0.029257909    0.51529712     0.29687342     6.1542174      6.1542174      6.1542174      0              0              0              0.94385261   
     74000   0.81303813     0.93085755    -4.402165      -1.9576467      1.041764       1.7261439      0.87618983     0.52295834     0.27428221     0.32509018     0.12289347     6.1827234      6.1827234      6.1827234      0              0              0              0.93085755   
     75000   0.73670983     0.95021961    -4.5370414     -2.4916865      0.81702952     1.3944201      0.72938013     0.32728829     0.38586232     0.2705932     -0.61448381     6.140441       6.140441       6.140441       0              0              0              0.95021961   
     76000   0.72871427     0.93072331    -4.3644656     -3.0462909      0.19508699     0.22359192    -0.17557196     0.537241       0.65125684    -0.79409664    -0.33423004     6.1830206      6.1830206      6.1830206      0              0              0              0.93072331   
     77000   0.73614881     0.95115596    -4.5348989     -1.5471734      1.6334143      1.9194024      2.0984139      0.88242667    -0.29764126     0.045256465   -0.2401063      6.1384254      6.1384254      6.1384254      0              0              0              0.95115596   
     78000   0.72608654     0.94655274    -4.4391402     -2.0299734      1.1405811      1.1177231      0.65389674     1.6501236      0.23877746    -0.20706442    -0.33664636     6.14836        6.14836        6.14836        0              0              0              0.94655274   
     79000   0.70948083     0.93462772    -4.375836      -2.0783424      1.0523853      0.86029699     0.8370581      1.4598009     -0.59499337     0.42140059    -0.18737507     6.1743988      6.1743988      6.1743988      0              0              0              0.93462772   
     80000   0.65649099     0.95930279    -4.5943633     -2.5059426      0.96680966     1.2666687      0.71570353     0.91805672     0.087257061    0.41090278     0.56202899     6.1209992      6.1209992      6.1209992      0              0              0              0.95930279   
     81000   0.69393845     0.95427534    -4.5566367     -1.9752327      1.3409311      1.3300051      1.3645009      1.3282872     -0.72767934     0.46872616    -0.56868764     6.1317296      6.1317296      6.1317296      0              0              0              0.95427534   
     82000   0.63769762     0.97122023    -4.7211965     -2.0242687      1.5408534      1.1865129      1.8347059      1.6013413     -0.14338305     0.33895386    -0.2668767      6.09586        6.09586        6.09586        0              0              0              0.97122023   
     83000   0.64324417     0.94577356    -4.6449279     -2.8586756      0.71037085     1.6901057     -0.20645468     0.6474615     -0.12017062     0.32403723    -0.12355711     6.150048       6.150048       6.150048       0              0              0              0.94577356   
     84000   0.68208876     0.99891937    -4.7795195     -1.3135444      2.2230112      2.7682053      1.6145241      2.2863042     -0.15327159    -0.76788038    -0.13198441     6.0389868      6.0389868      6.0389868      0              0              0              0.99891937   
     85000   0.71105611     0.94699113    -4.5786178     -2.5043642      0.87209477     0.75501201     1.2939338      0.56733853    -0.25939061    -0.077766482   -0.53267222     6.1474111      6.1474111      6.1474111      0              0              0              0.94699113   
     86000   0.64515155     0.97930008    -4.7427041     -2.1287607      1.4698891      1.6668429      1.171203       1.5716215      0.067612556   -0.55727343     0.13699826     6.0790488      6.0790488      6.0790488      0              0              0              0.97930008   
     87000   0.62973365     0.96723995    -4.6068105     -1.9745455      1.4881317      1.1110355      1.8608987      1.4924607     -0.21124845     0.13440127     0.61972752     6.1042103      6.1042103      6.1042103      0              0              0              0.96723995   
     88000   0.61025694     0.97063011    -4.706152      -2.5369127      1.110428       1.1283519      1.1167449      1.0861872     -0.74897696    -0.11286514     0.079887043    6.0970952      6.0970952      6.0970952      0              0              0              0.97063011   
     89000   0.58285467     0.96826342    -4.7721208     -3.2646516      0.56120423     0.52294394     0.97009078     0.19057798     0.33149185    -0.57246629     0.01677163     6.1020588      6.1020588      6.1020588      0              0              0              0.96826342   
     90000   0.56987688     0.97880002    -4.7838727     -2.5273165      1.2510977      1.2338703      1.4422903      1.0771326     -0.13500927     0.3745793     -0.32547237     6.0800839      6.0800839      6.0800839      0              0              0              0.97880002   
     91000   0.66332749     0.98128161    -4.8841203     -2.7135097      1.0531777      0.66302477     1.1075725      1.3889359     -0.039282808    0.43980185    -0.48932856     6.0749542      6.0749542      6.0749542      0              0              0              0.98128161   
     92000   0.64829485     0.96793126    -4.8637241     -3.1272918      0.67654194     0.86950077     0.48810242     0.67202265    -0.17048499     0.29355245     0.061584161    6.1027567      6.1027567      6.1027567      0              0              0              0.96793126   
     93000   0.53756525     0.97883047    -4.9155269     -3.4255042      0.61195283     0.078604603    0.67669991     1.080554      -0.77426377     0.19388679     0.24947645     6.0800208      6.0800208      6.0800208      0              0              0              0.97883047   
     94000   0.56031027     0.98349168    -4.9555851     -3.6323748      0.43537145    -0.050833414    0.13929187     1.2176559     -0.86628789    -0.12813433    -0.23740223     6.0704003      6.0704003      6.0704003      0              0              0              0.98349168   
     95000   0.59225053     0.9944231     -4.9730223     -2.8580963      1.1128427      0.44928266     1.1402952      1.7489504     -0.70259038     0.040920858   -0.3734468      6.0480749      6.0480749      6.0480749      0              0              0              0.9944231    
     96000   0.53603637     0.98224677    -4.9130783     -2.9583769      1.0310619      1.0496684      0.82622396     1.2172933      0.47386031     0.013927637   -0.34161047     6.0729638      6.0729638      6.0729638      0              0              0              0.98224677   
     97000   0.47136938     0.98830415    -5.0025875     -3.5095008      0.70939378     0.57652006     0.25462585     1.2970354     -0.56121467    -0.39908286     0.093524213    6.0605311      6.0605311      6.0605311      0              0              0              0.98830415   
     98000   0.53273618     0.98663661    -5.0217176     -3.7179104      0.45627322    -0.12864983     0.19377309     1.3036964     -0.47379434    -0.34348657    -0.2906174      6.0639436      6.0639436      6.0639436      0              0              0              0.98663661   
     99000   0.4871099      1.0040675     -4.9661807     -2.5150119      1.5737911      1.711265       1.567871       1.4422374     -0.064414696    0.16063486    -0.050755709    6.028648       6.028648       6.028648       0              0              0              1.0040675    
    100000   0.53326601     1.0039488     -5.0019788     -3.041571       1.0628243      0.95658825     0.91325657     1.3186282     -0.2358182     -0.45618136    -0.60587965     6.0288855      6.0288855      6.0288855      0              0              0              1.0039488    
    101000   0.44859965     0.99440191    -5.0285577     -3.4071086      0.86053203     1.2720703      0.27473909     1.0347866     -0.2839775      0.17827965    -0.7431452      6.0481178      6.0481178      6.0481178      0              0              0              0.99440191   
    102000   0.46561705     0.99204775    -5.0957322     -4.1553432      0.22136697     0.48089711    -8.9850819e-05  0.18329365    -0.26469919     0.33038445    -0.52537438     6.0528982      6.0528982      6.0528982      0              0              0              0.99204775   
    103000   0.44524162     1.0119466     -5.102363      -3.0256902      1.2991091      0.75911625     1.8276559      1.3105551     -0.57476089     0.086969808   -0.48955039     6.0129606      6.0129606      6.0129606      0              0              0              1.0119466    
    104000   0.49595624     0.99793746    -5.0905536     -3.3419083      0.91486425     0.42051776     0.46596571     1.8581093     -0.26461361     0.29635283    -0.52809094     6.0409668      6.0409668      6.0409668      0              0              0              0.99793746   
    105000   0.4488837      1.0106576     -5.1423649     -2.8628713      1.4788076      1.8608405      0.95504454     1.6205378     -0.83605609     0.11601016    -0.24907329     6.0155159      6.0155159      6.0155159      0              0              0              1.0106576    
    106000   0.43233295     1.0168359     -5.1163094     -2.545141       1.7803054      1.7814367      1.144231       2.4152484     -0.89789918    -0.2189405     -0.0672819      6.0033077      6.0033077      6.0033077      0              0              0              1.0168359    
    107000   0.43225647     1.0107857     -5.1947498     -3.5274516      0.93925461     0.83587358     1.0091669      0.97272334    -0.35001699    -0.39475656    -0.19983298     6.0152618      6.0152618      6.0152618      0              0              0              1.0107857    
    108000   0.36688273     1.0171639     -5.2031337     -3.3404691      1.2160584      1.1367026      1.1507066      1.3607661     -0.28717567    -0.10568014    -0.37526304     6.0026624      6.0026624      6.0026624      0              0              0              1.0171639    
    109000   0.41019134     1.0185115     -5.2398016     -3.1450423      1.3727209      1.1204429      1.1281446      1.8695752     -0.70270685    -0.11754691    -0.3635725      6.0000138      6.0000138      6.0000138      0              0              0              1.0185115    
    110000   0.4123332      1.0158823     -5.2544716     -3.6377622      0.92473184     1.115598       0.5872754      1.0713221     -0.65371653     0.121726      -0.6054343      6.0051855      6.0051855      6.0051855      0              0              0              1.0158823    
    111000   0.37450915     1.026074      -5.3079467     -3.3727723      1.2837301      1.5995742      0.74732329     1.5042927     -0.68444195     0.47699102    -0.41574194     5.9852366      5.9852366      5.9852366      0              0              0              1.026074     
    112000   0.40862923     0.99768505    -5.2331148     -4.4245872      0.18017145     0.21167672     0.1027037      0.22613395    -0.68627325     0.18731167    -0.55471704     6.0414762      6.0414762      6.0414762      0              0              0              0.99768505   
    113000   0.3758978      1.0364025     -5.324421      -3.0589946      1.6058575      1.2959772      1.3175464      2.204049      -0.48586556    -0.039601871   -0.43604829     5.9652879      5.9652879      5.9652879      0              0              0              1.0364025    
    114000   0.35578518     1.0137039     -5.2430466     -3.6981959      0.93430445     0.4421111      0.82880401     1.5319982     -0.40858766     0.11889209    -0.24275549     6.0094841      6.0094841      6.0094841      0              0              0              1.0137039    
    115000   0.33128636     1.019595      -5.3192841     -4.3550284      0.43546976     0.31922419    -0.043198336    1.0303834     -0.06538433     0.38559125    -0.56288044     5.9978877      5.9978877      5.9978877      0              0              0              1.019595     
    116000   0.36174015     1.0253445     -5.3544827     -4.0556331      0.70744335     0.53480827     0.80168913     0.78583264    -0.51454975     0.33544147    -0.37842143     5.9866559      5.9866559      5.9866559      0              0              0              1.0253445    
    117000   0.34937297     1.0290367     -5.3597829     -3.3822823      1.3621278      1.6361053      1.1770088      1.2732693     -0.691288      -0.015456903    0.078445492    5.9794872      5.9794872      5.9794872      0              0              0              1.0290367    
    118000   0.32803018     1.027582      -5.4173003     -4.0808499      0.79111238     0.47592695     0.82134962     1.0760606     -0.095132647   -0.036467414   -0.67324377     5.9823074      5.9823074      5.9823074      0              0              0              1.027582     
    119000   0.32344163     1.020729      -5.3941315     -4.1349428      0.72049745     0.61602043     0.89569944     0.64977247    -0.48893458     0.25770361    -0.61724971     5.9956656      5.9956656      5.9956656      0              0              0              1.020729     
    120000   0.29494919     1.0329236     -5.4597222     -3.9674755      0.98788346     0.68593125     1.2666577      1.0110614     -0.25170815    -0.18644594    -0.81272519     5.9719774      5.9719774      5.9719774      0              0              0              1.0329236    
    121000   0.29708365     1.0307533     -5.4368062     -3.7603958      1.155393       0.97366196     1.0612242      1.431293      -0.39418327     0.13164553    -0.29893154     5.9761659      5.9761659      5.9761659      0              0              0              1.0307533    
    122000   0.2748208      1.0344659     -5.4293591     -3.7909464      1.1550683      1.1740439      0.8530069      1.4381541     -0.3983483     -0.24432593    -0.52126377     5.9690081      5.9690081      5.9690081      0              0              0              1.0344659    
    123000   0.27692994     1.032587      -5.4704083     -3.9434018      1.0454367      0.70620935     1.0638841      1.3662165     -0.72516454     0.044049772   -0.41550224     5.9726263      5.9726263      5.9726263      0              0              0              1.032587     
    124000   0.25869318     1.0324409     -5.4804554     -4.1297808      0.90533333     0.7275816      0.89493008     1.0934883     -0.39323568     0.050001325   -0.46526485     5.9729081      5.9729081      5.9729081      0              0              0              1.0324409    
    125000   0.21020153     1.0339709     -5.4865551     -4.3667868      0.75765873     0.42208479     0.71614004     1.1347514     -0.39501653     0.37009988    -0.78644009     5.9699604      5.9699604      5.9699604      0              0              0              1.0339709    
    126000   0.25015533     1.0337567     -5.5156045     -4.2947408      0.796469       0.54187023     0.71272475     1.134812      -0.521682       0.037940803   -0.58160485     5.9703728      5.9703728      5.9703728      0              0              0              1.0337567    
    127000   0.23239317     1.0407447     -5.5295915     -3.8691634      1.2428207      1.0276721      1.7174255      0.98336469    -0.26586129     0.23762802    -0.5658218      5.9569802      5.9569802      5.9569802      0              0              0              1.0407447    
    128000   0.21917346     1.0407652     -5.5069356     -3.676466       1.4223979      0.66497544     1.3885428      2.2136755     -0.53259927     0.28325962    -0.64719851     5.9569411      5.9569411      5.9569411      0              0              0              1.0407652    
    129000   0.2122417      1.0370567     -5.5607471     -4.6445448      0.56513135     0.3219143      0.81964418     0.55383558    -0.45928926     0.40431835    -0.69417445     5.9640332      5.9640332      5.9640332      0              0              0              1.0370567    
    130000   0.21133859     1.0431793     -5.5964837     -4.3139295      0.91717405     0.64850352     0.99336165     1.109657      -0.59144216    -0.035960227   -0.56687864     5.9523424      5.9523424      5.9523424      0              0              0              1.0431793    
    131000   0.17213239     1.0460746     -5.5820032     -4.0595966      1.2034603      1.5114887      0.86897046     1.2299217      0.078583021    0.11030479    -0.60476443     5.9468458      5.9468458      5.9468458      0              0              0              1.0460746    
    132000   0.19435624     1.0400135     -5.6099227     -4.3000636      0.96417034     0.99143        0.97163513     0.92944589    -0.1901141     -0.039971093   -0.74433166     5.958376       5.958376       5.958376       0              0              0              1.0400135    
    133000   0.18069022     1.0471771     -5.6154152     -4.4140318      0.88696205     0.73300622     1.1940085      0.73387139    -0.11203646     0.18327075    -0.43067989     5.9447581      5.9447581      5.9447581      0              0              0              1.0471771    
    134000   0.16121286     1.0498717     -5.6408822     -4.3651923      0.98790988     0.68526325     1.1036024      1.1748639     -0.15788432     0.027038415   -0.67961897     5.9396678      5.9396678      5.9396678      0              0              0              1.0498717    
    135000   0.14768722     1.0441172     -5.6383159     -4.524637       0.84787608     0.60996223     0.97796357     0.95570246    -0.2859477      0.44750455    -0.77094506     5.9505596      5.9505596      5.9505596      0              0              0              1.0441172    
    136000   0.13559402     1.0495848     -5.6814099     -4.4035551      1.0261893      0.87984572     0.94997907     1.2487432     -0.44427649    -0.17284458    -0.78008374     5.9402088      5.9402088      5.9402088      0              0              0              1.0495848    
    137000   0.1379168      1.0550972     -5.670845      -4.1226551      1.2875534      1.2522919      1.2590395      1.3513289     -0.00043143305  0.17966618    -0.6557184      5.9298459      5.9298459      5.9298459      0              0              0              1.0550972    
    138000   0.12191849     1.0542348     -5.6880717     -4.3751889      1.0838679      0.9085879      0.98856694     1.3544488     -0.20962152    -0.046431349   -0.33809036     5.9314623      5.9314623      5.9314623      0              0              0              1.0542348    
    139000   0.11187889     1.0486369     -5.7074327     -4.7538828      0.74984276     0.53295311     0.83668044     0.87989472    -0.16924513    -0.013233504   -0.61057125     5.9419982      5.9419982      5.9419982      0              0              0              1.0486369    
    140000   0.098296181    1.0593664     -5.7204761     -4.403236       1.127294       1.0158591      1.2041416      1.1618813     -0.45438264     0.0095048551  -0.33906483     5.9218694      5.9218694      5.9218694      0              0              0              1.0593664    
Loop time of 24.4842 on 2 procs for 140000 steps with 200 atoms

Performance: 988066.614 tau/day, 5717.978 timesteps/s
89.1% CPU use with 2 MPI tasks x 1 OpenMP threads

MPI task timing breakdown:
Section |  min time  |  avg time  |  max time  |%varavg| %total
---------------------------------------------------------------
Pair    | 15.394     | 15.631     | 15.869     |   6.0 | 63.84
Bond    | 0.29938    | 0.30135    | 0.30332    |   0.4 |  1.23
Neigh   | 0.097594   | 0.097613   | 0.097632   |   0.0 |  0.40
Comm    | 6.5681     | 6.7366     | 6.9051     |   6.5 | 27.51
Output  | 0.023465   | 0.023933   | 0.024401   |   0.3 |  0.10
Modify  | 0.99074    | 1.0437     | 1.0966     |   5.2 |  4.26
Other   |            | 0.6498     |            |       |  2.65

Nlocal:            100 ave         103 max          97 min
Histogram: 1 0 0 0 0 0 0 0 0 1
Nghost:           3588 ave        3592 max        3584 min
Histogram: 1 0 0 0 0 0 0 0 0 1
Neighs:          31486 ave       32513 max       30459 min
Histogram: 1 0 0 0 0 0 0 0 0 1

Total # of neighbors = 62972
Ave neighs/atom = 314.86
Ave special neighs/atom = 10.25
Neighbor list builds = 95
Dangerous builds = 0
System init for write_data ...
Generated 0 of 1 mixed pair_coeff terms from geometric mixing rule
WARNING: Proc sub-domain size < neighbor skin, could lead to lost atoms (src/domain.cpp:970)
WARNING: Not all mixed pair coeffs generated from mixing. Use write_data with 'pair ij' option to store all pair coeffs. (src/write_data.cpp:309)
Total wall time: 0:00:24
