LAMMPS data file via write_data, version 23 Jun 2022, timestep = 200000

200 atoms
2 atom types
80 bonds
1 bond types

96.8001215174303 103.19987848256984 xlo xhi
96.8001215174303 103.19987848256984 ylo yhi
96.8001215174303 103.19987848256984 zlo zhi

Masses

1 1
2 1.5

Pair Coeffs # lj/cut

1 1 1
2 1 1

Bond Coeffs # harmonic

1 100 1.2

Atoms # full

93 47 1 0 98.33547488816761 98.96581566896897 97.63761359511932 0 0 2
189 109 2 0 99.5980666205583 98.098890760681 99.07473669321203 0 0 -1
91 46 1 0 100.18496401354665 101.5956825902026 96.99136601330103 0 -2 -1
197 117 2 0 97.98403839688717 98.87807289628049 99.64546481147971 -1 -1 0
44 22 1 0 98.20037803892934 99.31250046593851 98.64394164539004 -2 1 -1
194 114 2 0 98.2916099123992 100.35031284539708 98.03774554688077 1 1 1
43 22 1 0 97.97050766170447 98.31843012957971 98.84648325021969 -2 1 -1
120 60 1 0 99.31337817075529 99.858994223229 98.99736905127129 1 -1 1
99 50 1 0 102.180760407192 101.64252255141119 99.79069922828391 -1 -1 0
117 59 1 0 98.64620502294915 99.86608924515436 99.81049613316432 0 -2 -1
142 71 1 0 97.35280654641477 99.01671877400904 97.10553311179721 0 1 0
181 101 2 0 96.93040137674556 98.88216553188371 99.20322974198518 0 -2 2
166 86 2 0 98.68072680568218 98.09581217177748 98.13803927522675 -1 2 1
88 44 1 0 98.94978298614754 98.89003145929502 99.44123936560712 -2 0 2
168 88 2 0 97.29652030656099 100.13180065368039 97.63290354978399 -1 -1 2
177 97 2 0 97.24212855117828 98.98581532812993 98.21196170723364 2 0 0
65 33 1 0 99.9578714611351 100.63628149582928 97.23711867767452 0 -2 0
67 34 1 0 97.56215455400651 97.73739266161053 97.53586116272541 0 1 0
105 53 1 0 99.5578721282894 97.62305589168554 97.543018084459 0 0 0
55 28 1 0 100.33943565369634 98.32508926293804 98.08447579075622 -1 -1 0
188 108 2 0 97.64612081554218 102.72947448436419 97.34274832823105 -1 1 1
106 53 1 0 99.32019636160533 103.12244624015833 98.33280681902443 0 -1 0
35 18 1 0 98.40294177411397 98.23386191818494 96.89712103644455 0 1 1
56 28 1 0 100.63677760725449 97.26844505392573 97.42337888314796 -1 -1 0
128 64 1 0 100.5471596566163 97.36851309329222 99.66644417241086 1 -2 1
119 60 1 0 99.33357039087231 98.91408263234908 98.398389969489 1 -1 1
49 25 1 0 100.21891908064626 101.22152350234934 99.49262954231367 1 1 1
70 35 1 0 101.15406071496426 97.98665692933284 98.87387157676989 1 0 0
69 35 1 0 101.15457681589385 99.13242824301396 99.25767099372761 1 0 0
163 83 2 0 100.18999851189653 98.90538480619517 99.24101571583321 0 1 0
68 34 1 0 102.89618947638252 98.35053352871334 97.76511463422922 -1 1 0
160 80 1 0 100.97498416900665 99.22149907216934 98.16268817160578 0 0 2
158 79 1 0 101.43378440018091 96.98431708806088 98.05490505537058 0 0 1
26 13 1 0 100.60189653942726 98.62264833409924 97.10882014056317 -1 -1 0
20 10 1 0 102.90969042549236 97.47438383445242 97.33807666509554 -2 1 0
139 70 1 0 102.45348855146457 98.14901945562148 98.68574433746907 -1 0 0
25 13 1 0 101.50028037366262 98.16500544122671 97.80619335334966 -1 -1 0
167 87 2 0 102.39188704667687 99.36258127582369 97.38581193159354 2 0 0
200 120 2 0 102.96939072649786 101.8696915547547 98.35362151700089 0 1 -1
19 10 1 0 102.45987556124888 97.2032979895318 98.45124113237075 -2 1 0
178 98 2 0 102.28256602677997 98.34644879523071 96.8142908709543 -2 1 1
121 61 1 0 101.96828414587542 97.29548453016265 99.35390600261042 1 0 1
109 55 1 0 101.90057854303005 100.13122258384368 99.11081997966676 -1 -1 1
66 33 1 0 100.0824510794124 99.50356995401138 97.7247921271191 0 -2 0
140 70 1 0 102.21704231851268 98.80518331710013 99.57938397913004 -1 0 0
164 84 2 0 102.09075633035215 99.06159648176683 98.55493194719116 -1 -1 1
186 106 2 0 97.26024230377652 101.29459130056766 97.44453937385971 1 1 1
57 29 1 0 98.17733606961244 101.46637617270656 98.3152022106365 0 0 1
127 64 1 0 100.70322745795555 102.84016271291432 98.99232126729055 1 -3 1
59 30 1 0 97.03849417277195 97.38769851013976 99.18106032599505 2 -1 1
89 45 1 0 99.35527518101124 101.57035542651182 97.60121568278748 -1 0 0
60 30 1 0 97.90324347079441 97.2610174582674 98.40446996199438 2 -1 1
58 29 1 0 97.3667404420068 100.7933765331725 98.71956262914763 0 0 1
8 4 1 0 98.74343001082087 97.56388300655044 99.25818352004448 -2 -1 1
161 81 2 0 100.24012005257136 97.2616575470375 98.7695312870983 0 1 0
190 110 2 0 99.24254438413999 102.2522438324715 98.90718195509291 -1 -2 -1
7 4 1 0 99.50533291111388 103.16887257456149 99.40351723462649 -2 -2 1
11 6 1 0 98.35308913721747 102.72656408517622 98.02920734339149 -1 0 1
45 23 1 0 99.54275985643523 101.91549520328228 99.9012133512189 -1 1 0
90 45 1 0 99.21330913205949 100.89945884044185 98.54765960449303 -1 0 0
156 78 1 0 97.77753618695445 102.6940773833874 99.54061537491248 1 -1 0
29 15 1 0 97.56254666629474 99.83680888837375 99.56400161361394 0 -1 1
92 46 1 0 100.08689848400645 102.42083990363173 97.81018029064664 0 -2 -1
155 78 1 0 97.46599504569002 102.36457076003111 98.4990797720514 1 -1 0
48 24 1 0 98.3796807295424 101.70531986120072 97.0820973055801 2 0 1
30 15 1 0 98.35846228824842 100.57258515578383 99.03090781688896 0 -1 1
46 23 1 0 99.3085202239614 100.79573624443057 99.87085576932695 -1 1 0
12 6 1 0 99.37575599296223 102.78350857117299 97.22251539912479 -1 0 1
129 65 1 0 98.40850062458045 101.78060520447484 99.63308571297385 2 0 0
4 2 1 0 97.95522766641467 100.62708156136998 96.94379164910684 -1 -1 0
159 80 1 0 100.74747382135604 100.22937750833904 97.77276928006701 0 0 2
31 16 1 0 98.5666769028312 97.1933948181554 97.33890655268762 1 0 0
82 41 1 0 100.85914129440445 100.25248811744372 99.64640476670989 -1 0 0
196 116 2 0 102.98732962653037 100.97007971310434 99.56291690653998 -2 1 0
193 113 2 0 100.24284297553012 99.79981850031537 98.7358332533726 1 1 1
61 31 1 0 102.3152044220507 100.5303887898681 97.25645630035906 1 0 -1
62 31 1 0 102.7519148725684 100.57560641399496 98.49840332755856 1 0 -1
116 58 1 0 101.29595045100717 102.26849780783397 97.0822932529367 1 -1 -1
6 3 1 0 100.36441673048688 102.84954185028792 96.86212411289472 0 0 1
72 36 1 0 101.18664215014698 101.65539727558453 99.86231780514134 -2 0 -1
175 95 2 0 102.25200901608453 101.66159193871597 97.58407085535939 -1 -1 -1
157 79 1 0 102.25128554036436 102.75164163582073 97.53866215053381 0 -1 1
185 105 2 0 100.96342805907967 101.76187056919788 98.78709538679429 0 0 0
124 62 1 0 102.68141742256493 102.84609246071939 99.09695102441908 -1 0 -1
71 36 1 0 101.74965521556291 102.68795029061097 99.50528033779821 -2 0 -1
50 25 1 0 100.17021731062573 101.46288535292356 98.18092751379166 1 1 1
123 62 1 0 97.01382593070095 96.85993561577668 98.17853137499975 0 1 -1
37 19 1 0 101.9348501256793 101.16088731852413 98.75007021498467 0 -1 0
174 94 2 0 103.1842980889478 102.19746943079417 97.17483476200282 1 0 1
110 55 1 0 100.90709861135187 100.64695342502415 98.61030632356561 -1 -1 1
115 58 1 0 101.06598297887564 101.35937466246399 97.63453839527249 1 -1 -1
38 19 1 0 101.76581491706148 102.42229541298546 98.51104892158489 0 -1 0
3 2 1 0 98.99466007946884 100.01458577498212 97.35434181336346 -1 -1 0
94 47 1 0 99.21319818634917 98.91681641762024 96.98707202366764 0 0 2
64 32 1 0 101.49008037251622 99.44107786292639 96.92479302841895 1 0 -1
148 74 1 0 102.84959085292665 99.87733410226 99.49746354169835 -1 0 1
52 26 1 0 101.9390345608091 97.13895834325633 96.94750192455403 -1 2 0
22 11 1 0 103.08122647470277 97.98446729777336 100.09606319451149 -1 0 -1
183 103 2 0 97.05601324452698 97.42497939660888 101.95391455635651 2 -2 0
182 102 2 0 97.73004925351088 98.45049651246798 100.93843957195173 1 1 -1
36 18 1 0 98.05909775260638 97.94942372182393 102.15511172305796 0 1 0
86 43 1 0 98.82147789904386 98.2027924254667 101.33653926100826 1 1 1
132 66 1 0 96.95804284673171 99.51198920066584 101.17659285403357 0 1 -2
131 66 1 0 103.1047039689004 98.2477436646621 101.2513551792156 -1 1 -2
53 27 1 0 102.0336637977001 102.56884820242489 102.48410157251796 0 0 0
162 82 2 0 98.75801900108722 99.70616294819398 102.08323664590503 -1 1 0
176 96 2 0 99.74731294414401 98.06296795990048 101.76161676490854 0 3 -2
144 72 1 0 98.05619411283818 99.06713334891263 101.78378724214843 1 0 -2
21 11 1 0 96.9178668316053 99.20398180919469 100.22128231858005 0 0 -1
77 39 1 0 98.94274792165 97.44909537339655 102.1066138112313 -1 0 0
13 7 1 0 98.67940220649453 97.20832856418139 101.05331035983193 0 1 -2
84 42 1 0 98.95340495093274 98.64650660975532 102.33055762276092 -1 2 -2
85 43 1 0 98.83845095492009 99.09599419451287 100.53197420714902 1 1 1
78 39 1 0 98.02407336675859 97.20124036107823 102.78944177512135 -1 0 0
118 59 1 0 99.71854946548558 99.54146076756936 100.01081352207126 0 -2 -1
28 14 1 0 100.46533453992805 98.5951303211352 102.46855772331689 -3 0 0
107 54 1 0 99.96271171093107 102.79143198814253 100.55477108978779 0 1 -1
184 104 2 0 99.98470201468595 98.2579309816326 100.13730178515986 0 -1 0
83 42 1 0 98.23911820900891 99.3865288955151 103.06609816997553 -1 2 -2
143 72 1 0 96.98889555199482 99.17228933771008 102.24784731597367 1 0 -2
154 77 1 0 102.41248657345595 103.16094615826701 100.15161471698877 -1 -1 -1
114 57 1 0 102.06796517847178 99.80585578518806 101.55334608053855 -1 0 -1
195 115 2 0 102.43339604692464 98.52155119637493 102.02496920290623 0 0 1
112 56 1 0 101.90547198786336 98.90451806566703 101.02708006618474 1 0 -1
23 12 1 0 100.71376864870003 98.43768321943834 101.4673023745482 0 3 -1
10 5 1 0 100.39550294525002 99.49287409660371 102.07083301770352 -1 -1 1
111 56 1 0 101.4368128693657 99.10491183831579 102.12024071702909 1 0 -1
199 119 2 0 102.36537915799384 97.48398049090211 102.30252352061284 -1 -1 3
187 107 2 0 101.20798470349195 98.27576333892844 100.31402252494927 -2 -2 1
9 5 1 0 99.70840384193042 99.02724850671265 101.23047549278161 -1 -1 1
147 74 1 0 101.85849888105862 99.59012062055668 100.10014600232351 -1 0 1
2 1 1 0 101.44046935332345 97.71829185546082 101.85528439578893 -1 0 0
191 111 2 0 102.943121734434 102.95535785241418 101.81753949591926 0 1 -1
1 1 1 0 102.38035738150249 97.29335429208548 101.09314320999971 -1 0 0
81 41 1 0 100.62845676463547 99.15216238402449 100.23853414849489 -1 0 0
24 12 1 0 100.57827972846104 97.44385201052056 100.73746079199637 0 3 -1
113 57 1 0 102.33407745534923 99.30447484008182 102.63857633141053 -1 0 -1
122 61 1 0 101.37563475293591 96.99371463329508 100.35012918621935 1 0 1
153 77 1 0 102.1274347510519 97.95121176479314 100.27789357529889 -1 0 -1
133 67 1 0 100.89617075826939 103.11956744087858 101.3672399579741 -2 0 -1
150 75 1 0 101.19852216555356 97.8586011240104 103.07045955678053 -1 1 0
51 26 1 0 101.13867373634696 103.09419988868055 102.59703407717028 -1 1 -1
27 14 1 0 100.13544530846178 99.70530225058411 103.04889337084245 -3 0 0
5 3 1 0 99.592152590345 102.7860934786821 102.37223762876722 0 0 0
149 75 1 0 100.40566475753363 97.37703272203515 102.31307358584183 -1 1 0
102 51 1 0 101.28192730938426 100.50225610569103 100.62677092051892 0 0 -2
170 90 2 0 97.01767416595808 103.1481561708904 102.97269743653662 2 -1 -1
33 17 1 0 97.61279809878708 102.75096784484347 101.51116436720011 0 0 0
34 17 1 0 98.85971633558445 102.67748729562987 101.61977445885864 0 0 0
39 20 1 0 102.94660128791188 101.22464088391031 103.00649155206811 -1 0 -1
74 37 1 0 103.14713642401067 100.62984446031801 102.02954253058681 -1 1 -1
152 76 1 0 97.77507458480223 102.2301869397304 102.7874715576391 1 -1 -2
103 52 1 0 97.68560722622604 102.28964153055324 100.55561284603694 0 -1 -1
192 112 2 0 97.86090962705197 99.78316412144069 100.5682260765293 -1 0 0
108 54 1 0 99.75675743646154 97.13972271206869 101.35861422621406 0 2 -1
15 8 1 0 98.93090833427371 99.99404226897954 100.86819822457414 -1 0 0
179 99 2 0 99.62454404101345 98.02142208706779 102.87451865664356 0 -2 1
126 63 1 0 98.1287239357593 100.7637351083757 100.52820482616136 1 -1 -1
198 118 2 0 103.09971422543674 102.40086941548401 100.02577678915783 0 1 0
80 40 1 0 97.43648523761445 101.61292297119316 101.49431496428886 0 0 0
96 48 1 0 98.46257021205687 101.55858920242906 102.18985801221866 -1 0 0
73 37 1 0 97.71705438603037 100.03818504168673 102.2680477853906 0 1 -1
146 73 1 0 98.97162000477344 100.88303151308861 102.8608304999949 1 -1 -1
95 48 1 0 98.5916520347055 101.96062901263045 101.00261687263662 -1 0 0
79 40 1 0 97.55130117744139 100.56106638189112 101.36532267740992 0 0 0
98 49 1 0 96.95562809099343 100.36847565494732 100.3401677967674 2 0 0
32 16 1 0 98.6685802529207 102.72184443816967 102.82192064658142 1 -1 -1
125 63 1 0 98.5384841809318 100.61604175588609 101.63405344065183 1 -1 -1
136 68 1 0 100.12634585885888 102.22688058898481 101.39835893503289 0 0 -1
135 68 1 0 100.5920983674644 102.10358135098264 102.43761781104564 0 0 -1
171 91 2 0 100.2713571603731 100.70008411685676 100.29256784259175 -1 -1 1
151 76 1 0 97.51316505687772 101.23854903202103 102.62453140374902 1 -1 -2
16 8 1 0 100.09264283546182 100.01653508185072 101.2555067843839 -1 0 0
172 92 2 0 99.50358029638144 97.30059778534671 100.2352350124051 -2 2 -1
75 38 1 0 96.99098739951576 96.87805963925446 100.60665213489641 -1 1 0
47 24 1 0 99.42044095207739 101.89609112552345 102.75956176981511 2 0 0
169 89 2 0 101.34381482520318 102.12949848976943 101.73827926696036 -2 1 1
63 32 1 0 101.09679045178899 100.43296086751742 103.13011909573166 1 0 -2
104 52 1 0 103.00180960380332 102.17128150379335 101.09130395051018 -1 -1 -1
180 100 2 0 101.2999176604759 102.39983933217886 100.58504499539626 0 -2 -2
17 9 1 0 101.00149713256047 99.45128659372679 101.14840482652322 -1 -2 0
97 49 1 0 102.23332868848217 100.60122705346706 100.1982125940831 1 0 0
145 73 1 0 99.59938857200513 100.55173210810553 101.98334276947308 1 -1 -1
18 9 1 0 101.1264256964813 100.13569446786371 102.09428307739672 -1 -2 0
42 21 1 0 102.42906771986179 101.50375403583492 102.11775299176615 -1 1 0
137 69 1 0 101.70041252888983 101.0316622935033 101.64000612470763 0 -2 1
100 50 1 0 102.05413017577705 101.72683998126085 101.0365338559199 -1 -1 0
40 20 1 0 96.86183126500242 102.00545862055152 102.25291414614827 0 0 -1
138 69 1 0 100.96975432783253 101.2240996320716 102.49131929977679 0 -2 1
134 67 1 0 101.97805437040878 102.83791618673251 101.54271640203274 -2 0 -1
101 51 1 0 100.49489432645254 100.96045504514434 101.37933212839208 0 0 -2
41 21 1 0 102.36071477041006 100.39189441044032 102.49423086528866 -1 1 0
165 85 2 0 102.84130195684668 101.0336603746467 100.97911440395166 2 2 0
87 44 1 0 98.74315549348005 97.9988203194787 100.17356838387444 -2 0 2
76 38 1 0 98.08826570091888 97.0608181277563 100.05489716810122 -1 1 0
54 27 1 0 101.79517347255738 101.57352133488078 102.90940757030954 0 0 0
141 71 1 0 97.160928696382 98.14572488543156 102.85973769262306 0 1 -1
14 7 1 0 98.80461152169126 102.73308624227428 100.16359084592456 0 0 -2
173 93 2 0 103.14664291696519 99.95391614847786 102.99933467176294 1 0 -1
130 65 1 0 97.38732398965831 101.41864122653107 100.14176561129621 2 0 0

Velocities

93 0.45756574169204955 -0.5865678376687778 0.8179036426794037
189 0.2753229624020562 0.6997199548837579 0.4927405226500077
91 -0.26427632189556727 0.950927892910606 -1.0870827079105199
197 0.4407071070816713 1.8218557850161345 -0.8263969471992565
44 -1.857081764786803 -0.16957932692796995 -0.06902572573984184
194 -1.1992466563026494 -0.5050437399543746 0.3030890172134229
43 1.4191989848357642 -0.005929812789077703 -0.8555962499287095
120 -0.00974050401805753 0.6089391248230911 -0.3109958451271373
99 -0.9626651682958033 -0.8936515514616905 -0.8947842343824552
117 0.7808457691010013 -0.073325026771054 -0.1295915303082291
142 0.011782230613435809 -0.9384637874848918 -0.1571054406854842
181 0.9048081439595898 1.1770981483081118 0.5286217911144635
166 -0.43916604016161787 -1.4233700843003751 -0.41720177806180286
88 0.09234958460821321 0.4268335448511094 -1.220724271853949
168 -0.35070063822765035 -0.5653777079764682 -0.4992218770685001
177 -0.36535518085296403 1.722210711723828 0.3745772904346
65 0.2987800652861781 -0.6104544613752347 -0.6042200604890365
67 -1.9834419765228462 -0.768407116626362 -0.6799848876883905
105 -0.10810275527170495 1.1186144340608264 -0.13818742948411902
55 0.1516821400947247 -0.7220539528246903 1.7119742600488093
188 0.8649018285869052 -1.5579560065547153 -0.2065290998342253
106 1.3301285231048778 -0.43613313701686857 0.4445435036445734
35 1.2173189463490606 -1.084171963031943 -0.8273311698482135
56 -1.913456367704461 1.1862864788145646 0.7644462909450803
128 -0.3667074774519813 1.2072802954523365 -1.0203987245384145
119 -2.7607065007672653 -1.2537542736639027 -0.4830891786953105
49 -0.2599129276667967 -0.5284346015250555 1.2079140598184057
70 1.8583359654303684 0.023186698855397102 -1.9532188077830988
69 -0.37287901926458716 -0.7167865645118087 0.7096804200919908
163 -0.9141487085998414 1.1627416288224905 -0.48429765435663996
68 0.010509699139829921 -0.41935049036367245 -0.43072169590812753
160 0.31442719555555354 -0.30078835291588174 -0.7053543761106674
158 0.19299187483173905 0.7890844990999459 -1.657898250229383
26 0.1746392702466675 1.4616340771737444 0.32718829390931564
20 0.09688707454838759 -0.25227692930938467 -0.40858064317767173
139 -1.019997516824836 -0.2518932369540188 -1.0365773000317822
25 -0.43986937214018107 -1.3084214119574078 -0.15797836174153485
167 0.6067176319520374 0.7126085168707109 0.7149552111565041
200 -0.13732720627414155 0.05424350640118224 -0.6122551223172067
19 1.1403600061653454 0.8786372633721351 1.9201663663320585
178 -1.3205137409882743 0.646279196864082 -0.4421191932149151
121 0.38086349418361387 0.7462768999528808 0.5394891046070079
109 0.6817950311797645 0.3471952554672561 -0.10823081150404464
66 2.068678269169706 -1.12765324312295 -1.0048442466619598
140 -1.0636816894353154 1.3580616108929862 -1.006766460546748
164 -0.6358513854277107 -0.41256582313471163 1.4889991324428233
186 -0.8065652893283612 0.8908121603416005 0.5278092822431911
57 -0.5748071398047149 -0.6474993456196529 2.32714684543293
127 1.038264557887187 -0.32062629207805227 1.8622237062456632
59 -0.4156689015777148 -0.7325494768540196 0.3774628234656716
89 0.13851056848200446 1.2089489424777553 -1.0199064501530355
60 2.8130068926572074 -0.8641931829136201 1.8252400707318668
58 -3.34972945808806 -0.9780880021408146 0.7017262616930057
8 -1.7558386313073886 0.6041475690802373 -1.5406764281283367
161 0.07146024793860309 1.030592532364905 -0.9426495957095473
190 -0.4197830530205382 0.11374974247566795 -0.7250513414214436
7 -0.8644169618002424 -0.8435409246180932 0.29745888286683714
11 0.9086310702519385 1.1941026017675527 -1.392498937123936
45 -0.40074331266557733 -1.0947912983820314 0.0538670735769567
90 -0.10540921702947342 -0.2465109705032191 0.7065389356519945
156 -1.4676718619939335 -0.4145343555300278 1.0200730730920538
29 0.33062869240445636 -0.9563198477604482 -1.227478260972404
92 -0.33929137457155284 -1.2010442701514878 -0.7260245183814239
155 -0.5434638644475159 -1.3122976476894948 -0.2708452467503196
48 -0.6003884161347238 0.2602909423235414 0.919468654143659
30 -0.29188216048193616 0.3927901936004109 -0.5497637680876769
46 -1.3555314238055614 0.5272486684449338 1.0851622599578785
12 -1.1063328797685943 1.2862660519455706 1.9535823885865669
129 1.5265074744082612 1.0131456463392619 0.43132283942281235
4 -0.38745528143880303 0.20146975558810862 0.36655958883180007
159 -0.8097569380178752 0.021025717946680778 1.331948878891125
31 1.5394565209918452 -0.04446174466179879 0.5435611864633848
82 0.6273443144559795 0.3606667290989969 0.8991385829355907
196 -1.0035258379589773 1.2927817063600073 0.49561948196554556
193 -0.5008815292967341 -0.4102671458008001 -0.41392411299926113
61 1.5164021210528058 0.832203739119432 0.7349178619502792
62 -1.7620225469888322 0.6898792335366172 0.5004008803038723
116 0.2937176931305155 0.11209574700495625 -1.8857597722143835
6 -2.0642160404260395 -0.16174936560496914 -0.3042386594927781
72 1.390696428699473 0.9012181150409859 -0.7479900304358237
175 0.8659873904452319 -1.0599871854634906 0.35212090666053547
157 -0.31261946312935696 -0.1845300366292756 0.13831492579012886
185 0.10681668019956254 0.36780425926033516 -1.300169794478831
124 -0.23177443459201685 1.221010500084191 -0.9470500638508006
71 -0.6108108922453536 2.2565592076718466 -0.5665794428070587
50 0.1529433696929931 1.334165096846104 0.1080559859823996
123 0.3441021351098267 0.25346120153230206 1.3042371953358938
37 1.1386505689553899 -1.0504455404452846 -0.30312722283258264
174 0.48129940373322 0.06684524189180106 1.0570472668475517
110 -0.4911268774192904 -1.6303709529253956 0.43153306357884685
115 -1.8498588424251203 -1.1756249524811673 -0.8828429860069132
38 0.07741073274051485 -2.112262487789278 2.0624792173967395
3 -1.5960592757880803 0.45794504633142763 -0.0980512457373726
94 0.49613521584375164 0.8530211384066326 1.1435281752520683
64 -0.13103062226844137 0.5146258741414231 0.1424267403250108
148 -0.3773604781816783 -0.32401581503394355 -1.3788060943523424
52 -2.386887375873786 -1.1100502528855385 0.8819341417431841
22 -0.3723755243449342 -0.9708014814992393 0.5262013586274257
183 0.663048341267419 -1.7135708971565309 0.831631426678801
182 1.0386730721911777 -0.4182831342017413 -0.8130561801272492
36 0.9949375261156419 0.5271870910476596 0.3624234941567441
86 -1.3577311181132792 0.6313571417302082 -0.5988862284216865
132 0.11950330793437908 0.5497666693037601 0.30673625562504014
131 -0.7170999536964171 0.38172662850178923 -0.9725673830819889
53 1.1132748283871015 -0.6908800320926972 1.0810762944773664
162 0.3530745147667053 0.7680513414408764 0.6891960148339382
176 -0.8426630730803306 0.012132845104720003 -0.34665436302116776
144 -0.12394763806352734 1.00084425245076 -0.26955562407785455
21 0.049482232520026787 -1.5060351623893067 -0.5615966179924732
77 1.1635432239869608 -0.46665661728262553 -0.43904893097180275
13 0.16226649038567417 -1.5821950298408314 1.8411158179097105
84 1.4852007138548415 -1.3405380737092039 0.11568134614577465
85 0.6980922522364287 -0.99745390241934 -0.08424603613624493
78 -0.3077312129908555 2.0594416347487923 0.06202502152428718
118 -0.6925600216142053 0.4482211643462379 -0.3035494646248094
28 1.4151275266724466 0.08662737257407224 -0.3345080023129753
107 -0.7050759583771775 0.010794117601416858 -0.9127782343273774
184 1.8576613683719316 -1.0324800142162276 0.24686245772722976
83 -1.05282932244269 -1.3403639333013793 0.6398184419182416
143 -1.0192677924301299 -0.3551598755237165 0.06569302665820062
154 0.05178947001721996 -0.4923871210364547 -1.994272286644787
114 -0.18196729219627186 0.721981445249386 -0.22815203374229048
195 -1.2475329354872318 0.25238376648390765 0.28643210453815043
112 -0.7712237249574978 -0.42023239782219 -2.263462599481412
23 1.3536523057908934 1.1074577834056372 -0.6525467735343019
10 -0.4710305313834553 -0.4470667871656768 -1.4299473146812312
111 -1.2255578966441099 0.7254589352928125 -1.4959651385940518
199 0.6661773358166532 -0.5496777464790472 1.24376811251241
187 -0.382381123365279 0.42379151041336444 -0.817358952558238
9 -1.1916915436588351 -0.15886191497201554 0.05126783241733704
147 -1.4502405183032527 -0.8264325130166679 0.5973480800859461
2 0.24350475903722188 -2.442187042695185 2.0619225068712725
191 -0.42988512210124147 0.43297440531437204 0.20368843191291916
1 -0.741786874224448 0.1572312750259553 0.27605788268192005
81 -1.188236676036105 2.1809978313900404 -0.370331677099345
24 -0.08486657729978789 0.0070448048420149205 1.0227569766469664
113 -1.1279912527296563 -0.8624901482542326 -0.31940695288064674
122 0.04565366125682457 0.8414096839107991 -0.38376047233183247
153 1.7635119547488565 1.589623369421853 -0.34625216456128904
133 -0.5011772707143413 0.045394258596414445 -0.5579508995256406
150 -0.47521340822868036 -0.06847042038880126 1.0657046829727708
51 2.4907119479989386 -1.0466748461211388 0.4242177778811841
27 1.90182964304984 -0.8741956146979748 -0.9425282425289364
5 -1.9937714268646387 -0.3410660281921371 1.2487581824744225
149 0.9507075394053935 1.0576635114443458 -0.7729672735256534
102 0.560040101750156 1.430322118890356 2.1190682533775935
170 -0.5701186437355593 -0.563148569294607 0.13908380428129188
33 1.1162624825275154 0.004599214391353923 0.0738600711606705
34 -0.9155164074219565 1.147263833600741 0.6315752641522298
39 -0.6353733365749361 -0.9902785882927155 -0.5522443267218523
74 -0.2300701918881406 -0.0035500010026325106 0.06596012690786894
152 0.03295930474647459 0.33652540151056637 1.0948545553128013
103 0.06316538354738294 -0.9163781500592368 -0.4325579552126178
192 0.5748799543343412 -0.8538717468414025 -0.8360913134458056
108 -0.20774111519934077 1.016494401179859 -1.5019195694633873
15 0.34796802159826606 1.428144005717772 -1.0881337132509281
179 1.5606849220919337 1.1672907506659227 0.7417794435692618
126 0.36432197862026944 -0.20853852140963008 2.4404558148338755
198 0.9884066272084296 -0.3575997360216211 -0.23837255045522812
80 0.22395199065078683 -2.3191236756942977 -1.4645717468163046
96 0.9357133177780291 0.34476670932634484 0.03515541803877453
73 1.1816911188748953 -1.6596136375149604 1.2710582087536326
146 -0.022030515047960334 1.4675523549790284 -1.3793752753816126
95 -1.008415582430751 -0.5800893951608732 0.17022644036418613
79 -0.01989793187711048 0.13751845246180908 -0.7563253166170643
98 -0.9686955673470948 -0.45142382410826143 -0.3888227488578969
32 -1.0900644391807903 0.694809875732752 0.34393428612303145
125 0.5095540911230015 1.2356474363927206 -1.4189984751760019
136 -0.8350225251646367 0.758606729662769 -0.46907856879390997
135 -0.12669778098088713 -0.25848315031876573 0.6001957021235149
171 0.04781577276228468 -0.3802159980007026 0.47720197924883084
151 1.2158911510708628 0.6621295537796126 0.5317856462510951
16 0.41491533236620864 -0.9885636032295758 -0.2966265538450299
172 1.104326460652873 -0.1735197998049843 -0.3515918039648891
75 -0.8118356944570408 1.2838617618561976 -0.7979792522897197
47 2.1120392560389507 0.557199363245637 -0.15829340340196965
169 -0.010356155854534036 0.426511005336473 -0.0435828930000195
63 0.2233958909534405 -1.0135328671097006 -0.8125581084567233
104 -1.0219000972086192 0.6444724249336142 -1.4002457650173958
180 -0.3829438480796991 0.968938109061448 0.2006320708133101
17 1.7277045819047367 0.9857351837401968 1.9094989604537798
97 1.0256270290109117 -1.1002325450856003 -0.774466377037876
145 0.9680985651876439 -1.4356295399890158 0.7793292702209904
18 0.5294997333687095 1.1439882859879542 -0.33796785427583065
42 -0.5636586199195047 -0.031444090613986765 0.9775441364597023
137 0.5815358445664074 -0.15529444727759215 -0.45384855909810246
100 1.5973493246863983 0.03689898911764788 -0.42705245230677935
40 -0.15174190049142697 -0.1858734228818636 1.9058682415031951
138 0.5779220924531747 -1.1500683643374292 -2.3647185706554397
134 0.06819445845721889 0.4001418654690099 2.1002811051801293
101 0.009591260726092567 -0.24088626583102377 -3.3842601924489686
41 -0.03395822638834647 -1.4322578342160126 -0.08435317655630366
165 0.46719982017713124 0.4588830463272256 0.42510228664822236
87 -0.6515751912763503 -1.521113121355873 0.797951963707273
76 1.5547857366060196 0.5152452741663403 0.5364340991423326
54 0.13213121012473397 -0.04460242743158626 0.3717626574472388
141 0.8234471193005265 -0.2940395557949694 -0.8829474864039477
14 -0.13969248896141317 -0.05819143247759023 1.646153043641192
173 0.6801311679761228 -0.0973464055041075 -0.2257583885825918
130 0.8481093184507654 -0.732463953008504 1.9881663003974195

Bonds

1 1 93 94
2 1 91 92
3 1 43 44
4 1 99 100
5 1 117 118
6 1 65 66
7 1 67 68
8 1 105 106
9 1 55 56
10 1 35 36
11 1 119 120
12 1 49 50
13 1 69 70
14 1 139 140
15 1 25 26
16 1 19 20
17 1 121 122
18 1 109 110
19 1 57 58
20 1 127 128
21 1 59 60
22 1 89 90
23 1 7 8
24 1 11 12
25 1 45 46
26 1 29 30
27 1 155 156
28 1 129 130
29 1 159 160
30 1 31 32
31 1 61 62
32 1 157 158
33 1 71 72
34 1 123 124
35 1 37 38
36 1 115 116
37 1 3 4
38 1 131 132
39 1 53 54
40 1 21 22
41 1 77 78
42 1 13 14
43 1 85 86
44 1 107 108
45 1 83 84
46 1 143 144
47 1 23 24
48 1 111 112
49 1 9 10
50 1 147 148
51 1 1 2
52 1 81 82
53 1 113 114
54 1 153 154
55 1 133 134
56 1 51 52
57 1 27 28
58 1 5 6
59 1 149 150
60 1 33 34
61 1 39 40
62 1 103 104
63 1 15 16
64 1 73 74
65 1 95 96
66 1 79 80
67 1 125 126
68 1 135 136
69 1 151 152
70 1 75 76
71 1 47 48
72 1 63 64
73 1 17 18
74 1 97 98
75 1 145 146
76 1 137 138
77 1 101 102
78 1 41 42
79 1 87 88
80 1 141 142
