LAMMPS (23 Jun 2022)
OMP_NUM_THREADS environment is not set. Defaulting to 1 thread. (src/comm.cpp:98)
  using 1 OpenMP thread(s) per MPI task
Reading data file ...
  orthogonal box = (0 0 0) to (200 200 200)
  2 by 2 by 3 MPI processor grid
  reading atoms ...
  200 atoms
  scanning bonds ...
  1 = max bonds/atom
  reading bonds ...
  80 bonds
Finding 1-2 1-3 1-4 neighbors ...
  special bond factors lj:    0        0        0       
  special bond factors coul:  0        0        0       
     1 = max # of 1-2 neighbors
     0 = max # of 1-3 neighbors
     0 = max # of 1-4 neighbors
     1 = max # of special neighbors
  special bonds CPU = 0.001 seconds
  read_data CPU = 0.007 seconds
Generated 0 of 1 mixed pair_coeff terms from geometric mixing rule
Neighbor list info ...
  update every 1 steps, delay 0 steps, check yes
  max neighbors/atom: 2000, page size: 100000
  master list distance cutoff = 5.5
  ghost atom cutoff = 5.5
  binsize = 2.75, bins = 73 73 73
  1 neighbor lists, perpetual/occasional/extra = 1 0 0
  (1) pair lj/cut, perpetual
      attributes: half, newton on
      pair build: half/bin/newton
      stencil: half/bin/3d
      bin: standard
Setting up Verlet run ...
  Unit style    : lj
  Current step  : 0
  Time step     : 0.002
Per MPI rank memory allocation (min/avg/max) = 6.325 | 6.364 | 6.44 Mbytes
   Step          Temp         Density         PotEng        Enthalpy        Press           Pxx            Pyy            Pzz            Pxy            Pxz            Pyz             Lx             Ly             Lz             Xy             Yz             Xz          Density    
         0   1              2.75e-05       2.2913944e-28  2.4875         2.4875e-05     2.4540872e-05  2.7057051e-05  2.3027077e-05 -8.5634887e-07  1.0219777e-06  4.891355e-07   200            200            200            0              0              0              2.75e-05     
       100   2.5460692      0.00020837979  4.84198       -3.056329      -0.0022160845  -0.0064438455  -9.1411273e-05 -0.00011299676 -0.00011418486  0.00013728392 -2.0090717e-05  101.8253       101.8253       101.8253       0              0              0              0.00020837979
       200   4.2640173      0.00048094567  1.6515352      17.205317      0.0040179672   0.0058416615   0.0033636118   0.0028486284  -4.2624545e-05 -8.577244e-05   7.8886212e-05  77.050516      77.050516      77.050516      0              0              0              0.00048094567
       300   3.4109398      0.00083253532  0.10441452     9.156491       0.0029980724   0.0036044164   0.0028719584   0.0025178425  -3.4032189e-05 -8.0698972e-05  5.233082e-05   64.171177      64.171177      64.171177      0              0              0              0.00083253532
       400   2.6552059      0.0012518399   1.5398951      0.88016203    -0.0052607182  -0.0047319373  -0.0058799371  -0.0051702803  -0.00041501165 -0.00027537954 -0.00021198168  56.013317      56.013317      56.013317      0              0              0              0.0012518399 
       500   1.8151474      0.0017357826   1.6597927      11.417977      0.011123332    0.010038299    0.012943983    0.010387714   -0.00051069168  0.0006509691   0.00020298644  50.231458      50.231458      50.231458      0              0              0              0.0017357826 
       600   1.8893532      0.0022799997   0.35021069     2.2691883     -0.0018672825  -0.0020861894  -0.0023598554  -0.0011558028   0.00015256736 -0.00044636315 -0.00014005672  45.866538      45.866538      45.866538      0              0              0              0.0022799997 
       700   2.0025106      0.0028743967   0.25829214     2.6286495     -0.0016159068  -0.00082506575 -0.0019451007  -0.0020775538  -0.00040937954 -0.00044576782  7.3396983e-05  42.457915      42.457915      42.457915      0              0              0              0.0028743967 
       800   1.0074323      0.0035284082   0.96961621     7.7759119      0.017009182    0.016040611    0.019717628    0.015269308   -0.0012013631   0.0013987353   0.00011983361  39.653478      39.653478      39.653478      0              0              0              0.0035284082 
       900   0.96251837     0.0042287379   0.66916482    -1.4204826     -0.013555819   -0.013631152   -0.016028563   -0.011007743    0.0010733027  -0.0015840068  -0.00025623036  37.331087      37.331087      37.331087      0              0              0              0.0042287379 
      1000   1.4327946      0.004974225    0.02980671     3.9726898      0.008159706    0.0077465736   0.0099794039   0.0067531405  -0.0010309666   0.00038279728  0.00029272031  35.364356      35.364356      35.364356      0              0              0              0.004974225  
      1100   0.9316646      0.0057766784   0.31965412     5.401123       0.019383169    0.02196905     0.020738186    0.015442271   -0.0016014069   0.0013781827  -0.00019242829  33.644558      33.644558      33.644558      0              0              0              0.0057766784 
      1200   0.68703646     0.0066111729   0.67607604    -2.2954429     -0.024022123   -0.029737743   -0.025260189   -0.017068435    0.0019750716  -0.001323871   -6.8746435e-05  32.164839      32.164839      32.164839      0              0              0              0.0066111729 
      1300   1.0107895      0.0074956065   0.22495862     4.9517356      0.021929239    0.025478349    0.023642656    0.016666714   -0.0036665722   0.00065470146 -0.00011439963  30.846458      30.846458      30.846458      0              0              0              0.0074956065 
      1400   1.0195098      0.0084294894  -0.010203464    3.2890623      0.013622418    0.018461294    0.012148057    0.010257903   -0.0016850786   0.00046769252  1.8954627e-05  29.662458      29.662458      29.662458      0              0              0              0.0084294894 
      1500   0.85374775     0.0093847394   0.41320367    -1.3450003     -0.025871359   -0.04056314    -0.020900485   -0.016150451    0.0023481649  -0.002917761   -7.9796758e-05  28.619815      28.619815      28.619815      0              0              0              0.0093847394 
      1600   0.83944961     0.010399473    0.45659987     5.6496629      0.037250765    0.049285051    0.034693301    0.027773944   -0.0034552062   0.00073426822 -0.00068554048  27.656918      27.656918      27.656918      0              0              0              0.010399473  
      1700   1.0871891      0.011448858    0.030233246    1.3200257     -0.0034641871  -0.0064900331  -0.0042820594   0.00037953114  0.00024700359 -0.0005515059   1.5901985e-05  26.784703      26.784703      26.784703      0              0              0              0.011448858  
      1800   1.188705       0.012517986    0.10000587     0.87430185    -0.011378238   -0.024485137   -0.0037814364  -0.0058681406  -0.00085334361 -0.00062020739 -0.0011029412   25.999365      25.999365      25.999365      0              0              0              0.012517986  
      1900   0.90990582     0.013654332    0.46728969     5.8766825      0.050289629    0.069959582    0.042974588    0.037934717   -0.0069179337   0.0010886431  -0.00079372554  25.257135      25.257135      25.257135      0              0              0              0.013654332  
      2000   1.0045434      0.014804698    0.28219243    -0.31672491    -0.028239266   -0.044406375   -0.023495716   -0.016815708    0.0029945929   0.00040449366 -0.00047966707  24.585236      24.585236      24.585236      0              0              0              0.014804698  
      2100   1.2653212      0.015988232   -0.033376985    2.7816783      0.013467372    0.013026698    0.018622026    0.0087533913  -0.0019043906  -0.0006384659   2.6460491e-05  23.962976      23.962976      23.962976      0              0              0              0.015988232  
      2200   0.98991021     0.017236315    0.20261432     5.0344926      0.052561944    0.074756831    0.044672938    0.038256062   -0.0015933811  -0.0014594014  -0.0014370741   23.370038      23.370038      23.370038      0              0              0              0.017236315  
      2300   0.83678845     0.018478441    0.37625892    -1.2730221     -0.048685447   -0.077062339   -0.042235086   -0.026758917   -0.00037978212  0.0022819762   0.0056052155   22.834199      22.834199      22.834199      0              0              0              0.018478441  
      2400   1.0473567      0.019778057    0.0520629      3.8354637      0.039919689    0.052038334    0.039186717    0.028534016   -0.0028029475  -0.0023656418  -0.0046654512   22.322681      22.322681      22.322681      0              0              0              0.019778057  
      2500   1.0049424      0.021125782   -0.020794589    3.4238787      0.037350319    0.049971159    0.03041054     0.031669257    0.0014341909  -0.0024035374  -0.0039951234   21.837519      21.837519      21.837519      0              0              0              0.021125782  
      2600   0.85024785     0.02246195     0.25471575    -0.82272037    -0.047914016   -0.07161826    -0.035233085   -0.036890702   -0.007036497    0.0019680359   0.01101667     21.39563       21.39563       21.39563       0              0              0              0.02246195   
      2700   0.91330797     0.023872361    0.18236072     4.3787343      0.061487855    0.076146557    0.060412312    0.047904695   -0.0038549398  -0.0044373213  -0.0039276253   20.965687      20.965687      20.965687      0              0              0              0.023872361  
      2800   1.0605005      0.025306728   -0.07121099     2.0443777      0.012257467    0.011798748    0.0071964926   0.01777716    -0.00084894354  0.004721403   -0.0017017084   20.561852      20.561852      20.561852      0              0              0              0.025306728  
      2900   1.0615641      0.02673486     0.039742812    0.55408432    -0.026006771   -0.027599141   -0.026148322   -0.024272852    0.00041304507 -0.0078637232   0.0048173937   20.189005      20.189005      20.189005      0              0              0              0.02673486   
      3000   0.97054082     0.028244799    0.18304445     4.8912731      0.083699521    0.10351982     0.07725709     0.07032165    -0.0059281102   0.0078920972   0.0019605753   19.822636      19.822636      19.822636      0              0              0              0.028244799  
      3100   1.0635932      0.029748739    0.010604263    1.0221251     -0.015574601   -0.030202703   -0.015196652   -0.0013244483   0.000453446    0.0043479358  -0.0068891423   19.4828        19.4828        19.4828        0              0              0              0.029748739  
      3200   1.1355042      0.03127315    -0.074603164    1.9479916      0.0093209528   0.011029304    0.018947423   -0.0020138687  -0.00033737074 -0.0093851483   0.0094578234   19.160949      19.160949      19.160949      0              0              0              0.03127315   
      3300   0.98492825     0.032874531    0.044361418    4.1059175      0.077450919    0.088035139    0.080333125    0.063984492   -0.0016996897   0.0067684635   0.0031502621   18.844634      18.844634      18.844634      0              0              0              0.032874531  
      3400   0.91831777     0.034457519    0.065260649    0.16528374    -0.039800507   -0.065061539   -0.027147357   -0.027192626   -0.00040164621 -0.008288752   -0.0010369522   18.551523      18.551523      18.551523      0              0              0              0.034457519  
      3500   1.0281113      0.036087878   -0.12205665     2.525936       0.036531971    0.042138254    0.044154941    0.023302718   -0.0035008616  -0.00013404033  0.0077836465   18.267836      18.267836      18.267836      0              0              0              0.036087878  
      3600   0.98393359     0.037775841   -0.14381216     3.1602755      0.063036436    0.069499537    0.070080191    0.049529581   -0.00387079    -0.00070591519 -0.0027184547   17.991589      17.991589      17.991589      0              0              0              0.037775841  
      3700   0.89423014     0.039438411   -0.024993475    0.059659688   -0.044815849   -0.055485529   -0.052156716   -0.026805302   -0.0033168011  -0.0024932157   0.0053017338   17.735132      17.735132      17.735132      0              0              0              0.039438411  
      3800   0.94900164     0.041169659   -0.099771324    2.944311       0.060919771    0.067002468    0.051001199    0.064755645   -0.004077629    0.0010963318  -0.015072143    17.482967      17.482967      17.482967      0              0              0              0.041169659  
      3900   0.99075462     0.042926111   -0.17839326     2.2164752      0.035752269    0.027670355    0.041148724    0.03843773    -0.0088152674  -0.0045701972  -0.0027787112   17.241182      17.241182      17.241182      0              0              0              0.042926111  
      4000   0.95858815     0.044678946   -0.082010477    0.65478963    -0.028183995   -0.03597632    -0.01039513    -0.038180536    0.014184226   -0.007640732    0.0031696653   17.0127        17.0127        17.0127        0              0              0              0.044678946  
      4100   0.99131919     0.04650076    -0.086992449    3.1521682      0.074385015    0.083153354    0.079303358    0.060698334   -0.0082776271   0.012080082   -0.0014290964   16.787559      16.787559      16.787559      0              0              0              0.04650076   
      4200   1.0540584      0.048325564   -0.16675845     1.8221362      0.018263217    0.014417301    0.014194905    0.026177445    0.00026367449 -0.012969452   -0.00039244659  16.573539      16.573539      16.573539      0              0              0              0.048325564  
      4300   1.0731443      0.050157966   -0.16769217     1.5063183      0.0032986859   0.012293801    0.011112863   -0.013510606   -0.007310593   -0.0088300622   0.001151605    16.369205      16.369205      16.369205      0              0              0              0.050157966  
      4400   1.030344       0.052049024   -0.1281555      3.017081       0.076060095    0.078245968    0.080287573    0.069646745    0.0034266831   0.019364328   -0.0050352092   16.168511      16.168511      16.168511      0              0              0              0.052049024  
      4500   1.0001825      0.053943334   -0.14102574     1.1973014     -0.0075738988  -0.021503028   -0.0064761079   0.0052574392   0.0015092511  -0.014803291    0.017228314    15.97699       15.97699       15.97699       0              0              0              0.053943334  
      4600   1.0355975      0.055868029   -0.23660732     1.6554124      0.017592869    0.020709524    0.048279532   -0.01621045     0.013602991   -0.012311436   -0.0090690314   15.791369      15.791369      15.791369      0              0              0              0.055868029  
      4700   0.97884948     0.057850041   -0.22305252     2.8693948      0.08580289     0.087030872    0.080404144    0.089973653   -0.00076121418  0.001328948   -0.012760158    15.608925      15.608925      15.608925      0              0              0              0.057850041  
      4800   0.95064142     0.059806775   -0.23272408     0.54603532    -0.034800635   -0.023577326   -0.04333263    -0.037491948   -0.0012553125   0.003851688   -0.013357877    15.436805      15.436805      15.436805      0              0              0              0.059806775  
      4900   0.9845135      0.06183044    -0.3195252      1.7895153      0.035954631    0.023817804    0.04767551     0.036370578    0.0083568432  -0.0066560526  -0.0034612487   15.266522      15.266522      15.266522      0              0              0              0.06183044   
      5000   0.99661259     0.063876399   -0.38069126     2.4000857      0.075103125    0.081287161    0.066145847    0.077876366    0.0055743237   0.0065018817   0.021965691    15.101755      15.101755      15.101755      0              0              0              0.063876399  
      5100   0.95987885     0.06590573    -0.34767382     0.51889081    -0.033914762   -0.029583374   -0.0025895235  -0.069571389   -0.0058031139   0.0078365438  -0.0064744383   14.945135      14.945135      14.945135      0              0              0              0.06590573   
      5200   0.96271581     0.068006081   -0.35301243     1.6935363      0.037693629    0.02486014     0.037661236    0.050559512   -0.021475679   -0.0058771052   0.0062595055   14.789664      14.789664      14.789664      0              0              0              0.068006081  
      5300   0.9579899      0.070149738   -0.34837404     1.8320988      0.047872281    0.047706669    0.038685789    0.057224386    0.011298647    0.0051874899   0.0017488558   14.637454      14.637454      14.637454      0              0              0              0.070149738  
      5400   0.95427583     0.072262868   -0.29954051     0.61607498    -0.033414428   -0.02458717    -0.011205646   -0.064450469    0.023534678    0.011446416   -0.031547656    14.493363      14.493363      14.493363      0              0              0              0.072262868  
      5500   1.0247816      0.074446861   -0.35157502     2.154723       0.066109592    0.051598573    0.080666629    0.066063573   -0.010206743   -0.0034545703  -0.0030853094   14.350227      14.350227      14.350227      0              0              0              0.074446861  
      5600   1.029574       0.076626429   -0.32033677     1.9108207      0.048380418    0.060997624    0.028655944    0.055487687   -0.0017041606  -0.0015234894   0.033410669    14.212856      14.212856      14.212856      0              0              0              0.076626429  
      5700   1.0863897      0.078780992   -0.37254973     1.1235821     -0.008974219    0.014472682   -0.015092671   -0.026302668    0.011431601   -0.0085396044  -0.0065860249   14.082089      14.082089      14.082089      0              0              0              0.078780992  
      5800   1.0509796      0.081027018   -0.3407838      2.8681209      0.12082731     0.12235098     0.14488012     0.095250842    0.011024731    0.045429757    0.010385051    13.950752      13.950752      13.950752      0              0              0              0.081027018  
      5900   1.0175978      0.083228124   -0.35382774     1.0169894     -0.011193997   -0.036535499    0.0071261528  -0.0041726462  -0.016971214   -0.021440771   -0.0042940939   13.826668      13.826668      13.826668      0              0              0              0.083228124  
      6000   1.015166       0.085492715   -0.41535842     1.4203619      0.024916086    0.0080648669   0.037163529    0.029519861    0.02018566     0.0035175213  -0.020439186    13.70349       13.70349       13.70349       0              0              0              0.085492715  
      6100   0.96031304     0.087829604   -0.41431575     1.7379667      0.057409839    0.067448732    0.079821942    0.024958843   -0.016753264   -0.031241912    0.0082197616   13.580859      13.580859      13.580859      0              0              0              0.087829604  
      6200   0.91888047     0.090142954   -0.39527583     0.9094129     -0.0054692489  -0.013763377    0.0097723419  -0.012416712   -0.0075029395  -0.008014678    0.0073761799   13.463675      13.463675      13.463675      0              0              0              0.090142954  
      6300   0.96071851     0.092528032   -0.47774426     1.2041691      0.020864311    0.014794058    0.023701072    0.024097804    0.013066103    0.0085489012   0.017361785    13.346983      13.346983      13.346983      0              0              0              0.092528032  
      6400   0.9719674      0.09493973    -0.49412859     1.3881933      0.037256125    0.011417456    0.060226888    0.04012403    -0.0092117482   0.002036907   -0.025710733    13.232997      13.232997      13.232997      0              0              0              0.09493973   
      6500   1.0013741      0.097332761   -0.51810787     1.0430788      0.0058962278   0.013877957   -0.021527944    0.025338671   -0.029604425   -0.0086830927  -0.0064234458   13.123647      13.123647      13.123647      0              0              0              0.097332761  
      6600   1.0419403      0.099754638   -0.56340951     1.5206055      0.047965574    0.032049992    0.076175701    0.03567103     0.036636142   -0.037452158    0.0019993173   13.016569      13.016569      13.016569      0              0              0              0.099754638  
      6700   1.0523636      0.10219661    -0.5880451      1.5388724      0.051680336    0.031452921    0.088299406    0.03528868    -0.0025480876   0.0079272889  -0.001183462    12.912056      12.912056      12.912056      0              0              0              0.10219661   
      6800   1.0632114      0.10460947    -0.6323509      1.05521        0.009578226    0.012180776    0.065766006   -0.049212104    0.017504716   -0.017122179   -0.00076167299  12.812009      12.812009      12.812009      0              0              0              0.10460947   
      6900   1.0271233      0.10711053    -0.64107509     1.4584441      0.055165579    0.039614816    0.061759488    0.064122433   -0.0047975855  -0.016764605   -0.0052926723   12.711501      12.711501      12.711501      0              0              0              0.10711053   
      7000   1.0115725      0.109632      -0.68799379     0.95920243     0.013696449    0.032863916   -0.017084855    0.025310284    0.04221642    -0.017074363    0.00216046     12.613292      12.613292      12.613292      0              0              0              0.109632     
      7100   1.0065663      0.11215938    -0.74341321     1.0981576      0.034593072    0.014340663    0.049192624    0.040245929    0.048281395   -0.009965388   -0.018416784    12.517829      12.517829      12.517829      0              0              0              0.11215938   
      7200   0.97444591     0.11471817    -0.76823025     0.96719792     0.029312333    0.0016681962   0.044385956    0.041882846   -0.021119328   -0.013762915    0.020318911    12.424059      12.424059      12.424059      0              0              0              0.11471817   
      7300   0.94359842     0.1172691     -0.77260494     0.72433403     0.0094474462   0.015357885    0.0054004348   0.0075840193  -0.0097560791   0.02364221    -0.020206316    12.333311      12.333311      12.333311      0              0              0              0.1172691    
      7400   0.91597593     0.11991011    -0.77108281     1.1946312      0.065255074    0.029481005    0.12971001     0.03657421     0.036368567    5.770847e-05   0.0047575547   12.242092      12.242092      12.242092      0              0              0              0.11991011   
      7500   0.97550916     0.12254443    -0.86837366     0.45005244    -0.015320429    0.029205683   -0.086564745    0.011397775    0.031487084   -0.042722816   -0.026679827    12.153733      12.153733      12.153733      0              0              0              0.12254443   
      7600   0.99451869     0.12523025    -0.89009193     1.0564891      0.052626518    0.042985374    0.078027895    0.036866286   -0.044609851    0.031672781   -0.01304029     12.066217      12.066217      12.066217      0              0              0              0.12523025   
      7700   1.0368649      0.12792407    -0.94747139     0.7091731      0.012690483   -0.00021569435  0.04828167    -0.0099945275  -0.012641356   -0.040985046    0.017676877    11.980919      11.980919      11.980919      0              0              0              0.12792407   
      7800   1.0104925      0.13059394    -0.89238418     1.1514071      0.063591084    0.072276122    0.017197861    0.10129927     0.012400702    0.030305929   -0.0042830656   11.89871       11.89871       11.89871       0              0              0              0.13059394   
      7900   1.0091846      0.13327757    -0.88967161     0.68251819     0.0079944418   0.012171822    0.01342176    -0.0016102571  -0.01124067    -0.0053872492   0.0050675447   11.818305      11.818305      11.818305      0              0              0              0.13327757   
      8000   1.0056793      0.13601049    -0.88200577     0.79933524     0.022301348    0.043190416   -0.020071643    0.043785272   -0.0096629866  -0.041134435    0.014852571    11.738612      11.738612      11.738612      0              0              0              0.13601049   
      8100   1.0155772      0.13876596    -0.90647967     0.4680954     -0.017809219   -0.019951864   -0.0072668637  -0.026208928    0.048833213    0.059315726    0.03230144     11.660395      11.660395      11.660395      0              0              0              0.13876596   
      8200   1.0600883      0.14164206    -1.0003214      0.9079374      0.041987468    0.069496361   -0.0072620672   0.063728111   -0.032827013   -0.038788181    0.035616367    11.580931      11.580931      11.580931      0              0              0              0.14164206   
      8300   1.0267423      0.14446975    -0.99551628     0.25781492    -0.03665352    -0.011910644   -0.044862387   -0.053187528    0.01618445    -0.034637548   -0.040698096    11.504875      11.504875      11.504875      0              0              0              0.14446975   
      8400   1.0116249      0.14733755    -1.0329511      1.349787       0.11691742     0.089573442    0.12676016     0.13441865     0.026723333   -0.015816977   -0.030851928    11.429742      11.429742      11.429742      0              0              0              0.14733755   
      8500   1.0287011      0.15017697    -1.1392741      0.33339888    -0.0085550873  -0.033480825   -0.014416933    0.022232496    0.023816904    0.013239317    0.0093968868   11.357248      11.357248      11.357248      0              0              0              0.15017697   
      8600   0.96627561     0.15312693    -1.1291085     -0.082212535   -0.055024127   -0.066738097   -0.068616103   -0.029718181    0.0012173911   0.024370832    0.0003438222   11.283843      11.283843      11.283843      0              0              0              0.15312693   
      8700   0.95511906     0.15611694    -1.1824423      1.051839       0.11478371     0.15990698     0.11960557     0.06483859     0.011962095   -0.041498306   -0.0074747354   11.211341      11.211341      11.211341      0              0              0              0.15611694   
      8800   0.97722532     0.15897069    -1.2724399      0.10509872    -0.011701708   -0.098203344   -0.028210015    0.091308235   -0.040810652   -0.0071926731   0.0243421      11.143849      11.143849      11.143849      0              0              0              0.15897069   
      8900   0.98628811     0.16189894    -1.3265151      0.25190806     0.015658299    0.092366143   -0.0027984967  -0.04259275    -0.012520893    0.00072201716  0.0314811      11.076254      11.076254      11.076254      0              0              0              0.16189894   
      9000   0.95689999     0.16482317    -1.3063907      0.30918642     0.028080454   -0.035417957    0.060108207    0.059551112   -0.0041313039  -0.032346887    0.028962975    11.010359      11.010359      11.010359      0              0              0              0.16482317   
      9100   0.94700335     0.16778807    -1.308252       0.68385549     0.088272543    0.059892502    0.11158533     0.093339797   -0.016717624   -0.029767521   -0.015507465    10.94512       10.94512       10.94512       0              0              0              0.16778807   
      9200   0.97842785     0.17071854    -1.3591148      0.1133988      0.0018949767  -0.0023487465  -0.012048525    0.020082202    0.0020317522   0.023761257   -0.028635962    10.882132      10.882132      10.882132      0              0              0              0.17071854   
      9300   0.99746801     0.17377713    -1.3905201      0.22832713     0.020557241    0.057059163   -0.022970087    0.027582649   -0.024251504   -0.03941669     0.031877649    10.81791       10.81791       10.81791       0              0              0              0.17377713   
      9400   1.0329446      0.17686021    -1.4451368      0.47178449     0.060333682    0.11489832     0.02773023     0.038372498    0.076634643    0.016708569    0.051219945    10.75468       10.75468       10.75468       0              0              0              0.17686021   
      9500   1.0662824      0.17987081    -1.5046626      0.047724838   -0.0063836294  -0.0047441161  -0.03467771     0.020270938   -0.062956845    0.02164675    -0.014315169    10.69434       10.69434       10.69434       0              0              0              0.17987081   
      9600   0.97613455     0.18298048    -1.3985899      0.29110437     0.038727563   -0.063568942    0.11351675     0.066234879   -0.070087263    0.01681695     0.11559556     10.633412      10.633412      10.633412      0              0              0              0.18298048   
      9700   0.95789857     0.18608691    -1.399102      -0.19432424    -0.038043921   -0.056602568   -0.10502571     0.047496514    0.034589533   -0.0090146986   0.01706599     10.57391       10.57391       10.57391       0              0              0              0.18608691   
      9800   0.93622591     0.1892988     -1.3788013      0.053181241    0.0059655654  -0.0074135288   0.0840579     -0.058747675   -0.012352879   -0.029010612   -0.056040246    10.513765      10.513765      10.513765      0              0              0              0.1892988    
      9900   0.99394934     0.1925814     -1.4645747     -0.12020832    -0.024353325   -0.0016693055  -0.031707842   -0.039682828   -0.0079040162  -0.040392851    0.076820569    10.453686      10.453686      10.453686      0              0              0              0.1925814    
     10000   1.0223437      0.19598226    -1.502878      -0.43906172    -0.082318195   -0.1071234     -0.092879463   -0.046951726   -0.0040464399  -0.021789229   -0.074746002    10.392865      10.392865      10.392865      0              0              0              0.19598226   
     10100   1.0372269      0.19928942    -1.5113335      0.23750968     0.036376115    0.0062218493   0.022541901    0.080364593    0.047909089   -0.022910755    0.0044818404   10.335055      10.335055      10.335055      0              0              0              0.19928942   
     10200   1.0995595      0.20237119    -1.5945951     -0.011725508   -0.010711491   -0.053612432   -0.0024801767   0.023958135   -0.13551508    -0.078738256    0.01766487     10.282325      10.282325      10.282325      0              0              0              0.20237119   
     10300   1.0334443      0.2055738     -1.5132413      0.50882867     0.089640338    0.1257525      0.018080673    0.12508784    -0.021141484   -0.090501575   -0.06859817     10.22865       10.22865       10.22865       0              0              0              0.2055738    
     10400   1.0023495      0.208778      -1.5079712      0.15925458     0.032497088    0.02202182    -0.0066583259   0.082127771   -0.038465804    0.061111698   -0.0097114054   10.176052      10.176052      10.176052      0              0              0              0.208778     
     10500   0.9823028      0.21201113    -1.5292707     -0.51298136    -0.086692817   -0.164696       0.033721454   -0.12910391    -0.025389656    0.1038081     -0.012920292    10.124059      10.124059      10.124059      0              0              0              0.21201113   
     10600   0.9357576      0.21547255    -1.5141835     -0.26441754    -0.028766036    0.083384163   -0.043689822   -0.12599245    -0.033168894   -0.21966535    -0.01758407     10.069554      10.069554      10.069554      0              0              0              0.21547255   
     10700   0.99609241     0.21901766    -1.6471191     -0.084675098    0.015087552    0.031930901    0.069505077   -0.056173324    0.0087394962   0.053251194   -0.023060251    10.014928      10.014928      10.014928      0              0              0              0.21901766   
     10800   0.96074282     0.2224688     -1.6193562     -0.6122609     -0.086320599   -0.071312428   -0.20482829     0.01717892     0.051531724    0.088949942    0.014176633    9.9628713      9.9628713      9.9628713      0              0              0              0.2224688    
     10900   0.99195791     0.2259208     -1.6726159     -0.10086719     0.018741465    0.0096298888   0.01239554     0.034198967    0.030713777   -0.094729219   -0.043726473    9.9118676      9.9118676      9.9118676      0              0              0              0.2259208    
     11000   1.0565371      0.22939049    -1.7768118      0.077879467    0.057933518   -0.016150511    0.060192204    0.12975886    -0.071439202   -0.042689222    0.05267499     9.8616388      9.8616388      9.8616388      0              0              0              0.22939049   
     11100   1.047551       0.23283903    -1.780522      -0.53987873    -0.068333309   -0.1145268     -0.064585905   -0.025887224    0.031663936    0.010543126   -0.019000533    9.8127101      9.8127101      9.8127101      0              0              0              0.23283903   
     11200   1.0401024      0.23622599    -1.8047579      0.34499826     0.1282929      0.076881252    0.22026231     0.087735147    0.11379182     0.013957715   -0.038344098    9.7655866      9.7655866      9.7655866      0              0              0              0.23622599   
     11300   1.0034141      0.23941877    -1.8048896      0.61728789     0.20123842     0.26511756     0.19780826     0.14078945     0.030749024   -0.065334735    0.0011712351   9.7219824      9.7219824      9.7219824      0              0              0              0.23941877   
     11400   0.96739804     0.24258699    -1.8217911     -0.41426708    -0.0080092306  -0.055770427    0.09786748    -0.066124744   -0.010362365   -0.037523005   -0.091124355    9.6794733      9.6794733      9.6794733      0              0              0              0.24258699   
     11500   0.95264099     0.24604069    -1.8648789     -0.66259834    -0.049104381   -0.016070273   -0.076575134   -0.054667736    0.052878482    0.034826858   -0.016511253    9.6339691      9.6339691      9.6339691      0              0              0              0.24604069   
     11600   0.95879687     0.24971286    -1.9118503     -0.3775268      0.023454652    0.12779019    -0.038900496   -0.018525738   -0.12232859    -0.072049018   -0.015844197    9.5865114      9.5865114      9.5865114      0              0              0              0.24971286   
     11700   0.9058185      0.25340336    -1.840823      -0.97692428    -0.1124271     -0.26661767    -0.12337787     0.052714245    0.044722809    0.077428428   -0.0018465023   9.5397451      9.5397451      9.5397451      0              0              0              0.25340336   
     11800   1.0039835      0.25720685    -1.9611672     -0.69453607    -0.054203816   -0.034615533   -0.03967065    -0.088325264    0.019514938   -0.085063096   -0.046548582    9.4924879      9.4924879      9.4924879      0              0              0              0.25720685   
     11900   1.0163539      0.26085805    -1.9339833      0.092765618    0.12090551     0.053493847    0.26792148     0.041301199    0.078739862    0.11729989     0.11714149     9.4479912      9.4479912      9.4479912      0              0              0              0.26085805   
     12000   1.0385919      0.26434145    -1.9312448      0.53797632     0.22087477     0.32496834     0.15237708     0.18527888     0.074242916   -0.056862882   -0.020557483    9.4063068      9.4063068      9.4063068      0              0              0              0.26434145   
     12100   1.0213233      0.2676661     -1.9019956     -0.79728992    -0.10210714    -0.11653668    -0.23266105     0.042876321   -0.059181974   -0.0078220397  -0.038308905    9.3671995      9.3671995      9.3671995      0              0              0              0.2676661    
     12200   1.0442064      0.27124365    -1.9598797     -0.12467875     0.068235747    0.14705646     0.0061101147   0.051540669    0.028050901   -0.080697486   -0.079864635    9.3258344      9.3258344      9.3258344      0              0              0              0.27124365   
     12300   1.0249837      0.27506944    -1.993984      -0.49407812    -0.0074724632   0.082924022   -0.12178095     0.016439538   -0.026631835   -0.01187333     0.11813446     9.2823964      9.2823964      9.2823964      0              0              0              0.27506944   
     12400   0.93285201     0.27892524    -1.9049516     -1.0409227     -0.13394819    -0.062115371   -0.11690948    -0.22281973     0.085623939    0.064658838   -0.059151332    9.2394252      9.2394252      9.2394252      0              0              0              0.27892524   
     12500   0.98921901     0.28281418    -2.037561      -0.92230055    -0.092852756   -0.055610472   -0.099743571   -0.12320422     0.059216375   -0.086011326    0.0040017134   9.1968796      9.1968796      9.1968796      0              0              0              0.28281418   
     12600   1.0015743      0.28688899    -2.0996405     -0.30238281     0.078870486    0.052176612    0.1193843      0.065050541   -0.12435678    -0.099952925    0.058723686    9.1531293      9.1531293      9.1531293      0              0              0              0.28688899   
     12700   0.97925122     0.29072759    -2.0893842     -1.3262375     -0.18458181    -0.23125677    -0.19556853    -0.12692015    -0.098915794    0.14585064    -0.0600389      9.1126665      9.1126665      9.1126665      0              0              0              0.29072759   
     12800   0.98408377     0.2945969     -2.1106405     -0.11369411     0.14146045    -0.026317354    0.26501429     0.18568441     0.11003689     0.005753247    0.084417339    9.0725945      9.0725945      9.0725945      0              0              0              0.2945969    
     12900   0.96830549     0.29835383    -2.1100043     -0.38372757     0.076237756    0.047641853    0.18114489    -7.3472238e-05  0.035612133    0.029444823    0.075200943    9.0343523      9.0343523      9.0343523      0              0              0              0.29835383   
     13000   1.0295283      0.30207859    -2.2216367     -1.0695347     -0.10558167    -0.19640893    -0.1896454      0.069309306    0.048769764    0.075233387    0.0032438558   8.9970661      8.9970661      8.9970661      0              0              0              0.30207859   
     13100   0.98630762     0.30590934    -2.1852174     -0.70599539     0.0019906071  -0.031902026   -0.0076743021   0.045548149   -0.051154996    0.087404719    0.069169412    8.959353       8.959353       8.959353       0              0              0              0.30590934   
     13200   0.97817627     0.30968683    -2.1959187     -0.52909623     0.058247695   -0.0022529165   0.21975409    -0.042758088   -0.076291649    0.073671826   -0.067701877    8.9227758      8.9227758      8.9227758      0              0              0              0.30968683   
     13300   1.0246555      0.31346496    -2.2870141     -1.2427827     -0.13822863    -0.20239482     0.013374729   -0.22566581     0.083283986   -0.21717535    -0.011149604    8.8867826      8.8867826      8.8867826      0              0              0              0.31346496   
     13400   1.0379727      0.31755515    -2.3378209     -0.50983929     0.080487917    0.085197337   -0.0087773967   0.16504381    -0.0061332772   0.062478712   -0.13989993     8.8484631      8.8484631      8.8484631      0              0              0              0.31755515   
     13500   0.92579339     0.32153177    -2.1991716     -1.1667552     -0.10210979    -0.13043656    -0.27305928     0.097166471    0.069908987    0.010225938   -0.0039153148   8.8118331      8.8118331      8.8118331      0              0              0              0.32153177   
     13600   0.96818215     0.32556092    -2.2737098     -1.2562103     -0.12652849    -0.13103701    -0.12956995    -0.11897853     0.044158557    0.062699425    0.04565282     8.7753302      8.7753302      8.7753302      0              0              0              0.32556092   
     13700   0.95317746     0.32985401    -2.2497855     -0.36938248     0.13727494     0.10495294     0.26537438     0.041497506   -0.035452121   -0.095253505    0.025527806    8.7370933      8.7370933      8.7370933      0              0              0              0.32985401   
     13800   0.97572842     0.33377615    -2.2469404     -1.1573976     -0.11127851    -0.02972884    -0.45982497     0.15571829     0.098954268    0.15269761    -0.092107523    8.7027357      8.7027357      8.7027357      0              0              0              0.33377615   
     13900   0.94174021     0.33768195    -2.14308       -0.85004387    -0.034539074    0.09980871    -0.064411307   -0.13901463    -0.011506234   -0.27314143    -0.025251164    8.6690521      8.6690521      8.6690521      0              0              0              0.33768195   
     14000   1.1259525      0.34179872    -2.3507947     -0.57447589     0.029778339    0.01215411     0.08874143    -0.011560525   -0.13463591    -0.029898394    0.15068948     8.6341068      8.6341068      8.6341068      0              0              0              0.34179872   
     14100   1.0846218      0.34591378    -2.2543722     -0.45369346     0.057195506    0.03213639     0.029230091    0.11022004     0.02289464     0.095230677   -0.167435       8.5997324      8.5997324      8.5997324      0              0              0              0.34591378   
     14200   1.077697       0.34983504    -2.2543453     -0.32397645     0.1023764      0.14289407     0.12548852     0.038746593    0.030001624    0.027822408   -0.020507864    8.5674805      8.5674805      8.5674805      0              0              0              0.34983504   
     14300   1.1007088      0.35365645    -2.3535844     -1.6167971     -0.29129093    -0.24261922    -0.21082338    -0.4204302     -0.18502987    -0.049866391   -0.13491349     8.5365102      8.5365102      8.5365102      0              0              0              0.35365645   
     14400   1.0356295      0.35794       -2.3572523     -1.4163938     -0.19680799    -0.27538931    -0.15488246    -0.1601522     -0.032167898    0.018128986    0.1936581      8.5023207      8.5023207      8.5023207      0              0              0              0.35794      
     14500   0.97520108     0.36255796    -2.3448944     -0.74366439     0.048036421    0.17688656     0.084014801   -0.1167921      0.080085298   -0.12231515    -0.022082579    8.4660679      8.4660679      8.4660679      0              0              0              0.36255796   
     14600   0.99648109     0.3669052     -2.4115021     -1.473486      -0.18319641    -0.21163538    -0.10653665    -0.2314172      0.033394345   -0.12089515     0.080084193    8.4324985      8.4324985      8.4324985      0              0              0              0.3669052    
     14700   1.0718187      0.37135299    -2.5482429     -1.2984586     -0.11812573    -0.13219508    -0.19039899    -0.031783122    0.18101562     0.0003826999   0.12442604     8.3986971      8.3986971      8.3986971      0              0              0              0.37135299   
     14800   1.0516721      0.37573732    -2.5486803     -0.97495415     0.0014023808   0.094524025   -0.060614101   -0.029702781   -0.061381632    0.003141271   -0.039546808    8.3659022      8.3659022      8.3659022      0              0              0              0.37573732   
     14900   1.0402657      0.37977379    -2.5728323     -0.45491055     0.19517788     0.28880843     0.10085136     0.19587386    -0.084790087    0.040859839   -0.1358166      8.3361572      8.3361572      8.3361572      0              0              0              0.37977379   
     15000   0.98186058     0.38333225    -2.537143      -0.34778377     0.25227873     0.23355943     0.087301463    0.43597531     0.033247891   -0.043389861   -0.17806901     8.3102822      8.3102822      8.3102822      0              0              0              0.38333225   
     15100   1.0151615      0.38694239    -2.6428067     -1.3881034     -0.091608694   -0.18790616    -0.076066954   -0.010852966   -0.035411273   -0.021584717   -0.13364268     8.2843567      8.2843567      8.2843567      0              0              0              0.38694239   
     15200   0.96717439     0.39090189    -2.6191826     -0.92058058     0.090651641    0.22839573     0.060564701   -0.017005504   -0.067723414   -0.066796964   -0.080317686    8.2562906      8.2562906      8.2562906      0              0              0              0.39090189   
     15300   0.95701637     0.39491743    -2.6290771     -0.95184328     0.089354324    0.12764756     0.005011782    0.13540362     0.0010628295   0.12087584     0.22756947     8.2282117      8.2282117      8.2282117      0              0              0              0.39491743   
     15400   0.95053795     0.3992701     -2.6283095     -1.2283379     -0.0067898716  -0.39233957     0.18451293     0.18745703     0.090019265    0.28754816     0.025049329    8.1982023      8.1982023      8.1982023      0              0              0              0.3992701    
     15500   0.94554375     0.40373036    -2.6096041     -2.5202035     -0.48514569    -0.37390426    -0.53120944    -0.55032338     0.024861929    0.13027122     0.16012329     8.1679002      8.1679002      8.1679002      0              0              0              0.40373036   
     15600   1.0257084      0.40899578    -2.7045931     -1.1569049      0.0062533424   0.20555014    -0.17726863    -0.0095214823  -0.044426875   -0.17287514     0.13492351     8.1326975      8.1326975      8.1326975      0              0              0              0.40899578   
     15700   1.0241781      0.41408799    -2.671868      -1.4166595     -0.10291115    -0.34800884    -0.058805491    0.098080879   -0.14756237     0.057834414   -0.0063218799   8.0992228      8.0992228      8.0992228      0              0              0              0.41408799   
     15800   0.9855978      0.41878653    -2.5727555     -1.0723035      0.011211035    0.15985111     0.026676259   -0.15289426     0.051133403    0.062410146    0.22763506     8.0688193      8.0688193      8.0688193      0              0              0              0.41878653   
     15900   1.1044097      0.42297669    -2.6783115     -0.786267       0.093713576    0.1055792      0.051886161    0.12367537     0.0090502541  -0.09178261     0.087920009    8.0420866      8.0420866      8.0420866      0              0              0              0.42297669   
     16000   1.131423       0.42694084    -2.5964267     -0.55691997     0.13617781     0.17944298     0.19280768     0.036282753   -0.017552806    0.010381296   -0.31244334     8.017119       8.017119       8.017119       0              0              0              0.42694084   
     16100   1.1171582      0.43096851    -2.4735259     -0.82133166    -0.0059412289  -0.1518147      0.19392118    -0.059930161   -0.079955717   -0.017623173   -0.035187867    7.9920657      7.9920657      7.9920657      0              0              0              0.43096851   
     16200   1.1428697      0.43528512    -2.4962856     -0.4524363      0.13379726     0.29525423     0.20279962    -0.096662076   -0.13253437     0.12640393    -0.28858857     7.9655595      7.9655595      7.9655595      0              0              0              0.43528512   
     16300   1.1390459      0.4391879     -2.5652868      0.025647931    0.35570573     0.45255463     0.40763641     0.20692614     0.099573368   -0.15657474     0.039214158    7.9418943      7.9418943      7.9418943      0              0              0              0.4391879    
     16400   1.0771023      0.44272685    -2.5780546     -1.0110121     -0.016313542   -0.16509731    -0.044376873    0.16053356     0.08299682     0.12517989     0.013584273    7.9206764      7.9206764      7.9206764      0              0              0              0.44272685   
     16500   1.0189884      0.44690117    -2.5665375     -0.98625977     0.024147869    0.056403654   -0.16073284     0.1767728      0.11973788     0.023432639   -0.060606221    7.895938       7.895938       7.895938       0              0              0              0.44690117   
     16600   0.95603709     0.45135439    -2.5169192     -0.85239257     0.097509495   -0.02230338     0.2091349      0.10569696     0.019688156   -0.28244154    -0.10963788     7.8698841      7.8698841      7.8698841      0              0              0              0.45135439   
     16700   0.99239931     0.45576883    -2.5947765     -1.2335117     -0.049675177   -0.25534078    -0.0079852119   0.11430046     0.11164559    -0.096304527   -0.16214583     7.8443932      7.8443932      7.8443932      0              0              0              0.45576883   
     16800   0.98162907     0.46044661    -2.5943151     -1.5210671     -0.1640167     -0.12351293     0.091286475   -0.45982365    -0.012708123   -0.18837858     0.0087196045   7.8177384      7.8177384      7.8177384      0              0              0              0.46044661   
     16900   1.003319       0.46538747    -2.6343698     -1.3241779     -0.079226594   -0.20144507    -0.041975587    0.0057408706   0.1076257     -0.18720971     0.087124225    7.7899738      7.7899738      7.7899738      0              0              0              0.46538747   
     17000   0.99279127     0.47047988    -2.6227035     -1.6005333     -0.19656253    -0.25657327    -0.10567509    -0.22743923    -0.17046927    -0.034047404   -0.091089595    7.7617659      7.7617659      7.7617659      0              0              0              0.47047988   
     17100   1.0036876      0.47600922    -2.6428098     -1.2972665     -0.065975037    0.061033975   -0.20308415    -0.055874938    0.059523402    0.16571856     0.16341377     7.7315952      7.7315952      7.7315952      0              0              0              0.47600922   
     17200   0.96935403     0.48114725    -2.5668536     -1.1860033     -0.028829731   -0.16935719    -0.12907986     0.21194786    -0.1291195      0.12443653     0.12583321     7.7039755      7.7039755      7.7039755      0              0              0              0.48114725   
     17300   1.0071576      0.48589733    -2.5831332     -0.92808065     0.067084649    0.14126601     0.054292134    0.0056958057  -0.10598994    -0.17787877    -0.19457341     7.6787888      7.6787888      7.6787888      0              0              0              0.48589733   
     17400   1.0874257      0.49052587    -2.6628441     -1.9704492     -0.41497946    -0.35427699    -0.43987918    -0.45078222     0.1738094      0.14166086     0.17576873     7.6545604      7.6545604      7.6545604      0              0              0              0.49052587   
     17500   1.0734966      0.49577953    -2.6196632     -0.3384721      0.30602999     0.18929937     0.46329989     0.26549073     0.10011861     0.17847301    -0.25198048     7.6274265      7.6274265      7.6274265      0              0              0              0.49577953   
     17600   1.0890063      0.50055205    -2.679892      -1.3830076     -0.14946373     0.070646019   -0.31659094    -0.20244625     0.034969033   -0.3227423      0.11820546     7.6031077      7.6031077      7.6031077      0              0              0              0.50055205   
     17700   1.0320038      0.50577896    -2.6935648     -1.7567063     -0.277446      -0.36384697     0.049848377   -0.51833941    -0.093745264   -0.45336258    -0.074201768    7.5768259      7.5768259      7.5768259      0              0              0              0.50577896   
     17800   0.92832545     0.51133784    -2.6340155     -1.5461297     -0.13835868    -0.41566533    -0.067647369    0.068236651    0.13928814     0.010079476   -0.097457409    7.5492693      7.5492693      7.5492693      0              0              0              0.51133784   
     17900   0.95532061     0.516966      -2.7270072     -1.7167775     -0.19531269    -0.2615555     -0.15308209    -0.1713005      0.32695034     0.29490906     0.17778265     7.5217732      7.5217732      7.5217732      0              0              0              0.516966     
     18000   0.98601144     0.52225887    -2.783396      -1.3670985     -0.026267048    0.24128547    -0.10365616    -0.21643045     0.026725333   -0.1520102     -0.018150244    7.4962769      7.4962769      7.4962769      0              0              0              0.52225887   
     18100   1.0174445      0.52756832    -2.8415081     -1.6677248     -0.16534595    -0.21650107     0.065519667   -0.34505644     0.060653862   -0.1675907     -0.3767031      7.4710445      7.4710445      7.4710445      0              0              0              0.52756832   
     18200   0.99784167     0.53274822    -2.8081106     -1.429553      -0.053624064   -0.23797614     0.15384354    -0.076739587    0.015413092    0.05431098    -0.12672516     7.446752       7.446752       7.446752       0              0              0              0.53274822   
     18300   1.0674232      0.5378606     -2.9066107     -1.9122577     -0.29278004    -0.30172792    -0.30543269    -0.27117952    -0.077306574   -0.16795358    -0.064633935    7.423083       7.423083       7.423083       0              0              0              0.5378606    
     18400   0.952595       0.54360778    -2.73947       -1.6905701     -0.1842574      0.16768139    -0.056542284   -0.6639113     -0.043835885   -0.23252264    -0.059406086    7.3968306      7.3968306      7.3968306      0              0              0              0.54360778   
     18500   0.99772213     0.54963956    -2.8107428     -2.6352816     -0.65638912    -0.76150846    -0.70978044    -0.49787846     0.053113286    0.25897184     0.24216567     7.3696732      7.3696732      7.3696732      0              0              0              0.54963956   
     18600   1.0254066      0.55643324    -2.8467783     -1.1242207      0.097192863   -0.1240894      0.088804298    0.32686369     0.050045427   -0.099047954   -0.0093021735   7.3395574      7.3395574      7.3395574      0              0              0              0.55643324   
     18700   1.0730578      0.56196899    -2.8845239     -1.913194      -0.32196165     0.15737139    -0.31775697    -0.80549937    -0.44224079    -0.073151886   -0.13395225     7.3153781      7.3153781      7.3153781      0              0              0              0.56196899   
     18800   1.1117937      0.56692544    -2.9119386     -1.1238348      0.06635693     0.037950226   -0.11446912     0.27558969    -0.20936562    -0.1757693      0.0079735615   7.293997       7.293997       7.293997       0              0              0              0.56692544   
     18900   1.1043154      0.57189193    -2.9102131     -1.2674926     -0.0028440179  -0.21750273     0.022172055    0.18679862     0.028679276    0.06601998     0.28515131     7.2728211      7.2728211      7.2728211      0              0              0              0.57189193   
     19000   1.0383358      0.57699964    -2.8718571     -1.3885995     -0.034860544    0.017041177   -0.12851815     0.0068953451  -0.23308531     0.21271437     0.19525254     7.2512973      7.2512973      7.2512973      0              0              0              0.57699964   
     19100   1.0750081      0.58196916    -3.0400394     -1.326381       0.057778319    0.24102429    -0.32539284     0.25770351     0.070894872    0.048156207    0.068042764    7.2305984      7.2305984      7.2305984      0              0              0              0.58196916   
     19200   0.99118231     0.58695462    -3.0179471     -2.0291501     -0.2617511     -0.0027166107  -0.50310448    -0.27943222    -0.095252653   -0.3608866      0.1323951      7.2100684      7.2100684      7.2100684      0              0              0              0.58695462   
     19300   1.0099841      0.59255979    -3.1145887     -1.5819811      0.013578441    0.081137473    0.29715505    -0.33755719    -0.35056656    -0.088214097   -0.20676766     7.1872624      7.1872624      7.1872624      0              0              0              0.59255979   
     19400   1.0347423      0.59781451    -3.1991773     -1.336293       0.17311156     0.5256233      0.31403006    -0.32031868    -0.13645611     0.111605       0.034162492    7.166142       7.166142       7.166142       0              0              0              0.59781451   
     19500   1.0031912      0.60249695    -3.1985879     -1.3717993      0.18048938     0.40664612     0.16331243    -0.028490415    0.1468177      0.10839514     0.288154       7.1475293      7.1475293      7.1475293      0              0              0              0.60249695   
     19600   1.005246       0.60707912    -3.2536534     -1.9083915     -0.085580347    0.1494908     -0.48984521     0.083613372   -0.10227951     0.036176975   -0.023939664    7.1295009      7.1295009      7.1295009      0              0              0              0.60707912   
     19700   1.0030904      0.6118194     -3.2951827     -1.581191       0.12062816     0.051452166    0.33169617    -0.021263867   -0.31319273    -0.22439821    -0.039901468    7.1110404      7.1110404      7.1110404      0              0              0              0.6118194    
     19800   0.99352806     0.61649406    -3.3236676     -1.4041312      0.24474576    -0.028879318    0.51694619     0.24617041    -0.10012483    -0.10442134    -0.14481641     7.0930213      7.0930213      7.0930213      0              0              0              0.61649406   
     19900   0.97119787     0.62073793    -3.3224985     -1.9291951     -0.031719364    0.15812518    -0.26986999     0.016586719    0.19211115     0.28303008    -0.14098405     7.0768197      7.0768197      7.0768197      0              0              0              0.62073793   
     20000   0.99209615     0.62556169    -3.3794468     -2.1971866     -0.16972244    -0.32385841     0.087626624   -0.27293554    -0.0063941609  -0.20110088    -0.082045552    7.0585828      7.0585828      7.0585828      0              0              0              0.62556169   
     20100   0.92925464     0.63118774    -3.3032741     -2.08473       -0.096610983   -0.39334741     0.48609683    -0.38258237     0.14545662     0.19836678    -0.1704929      7.0375481      7.0375481      7.0375481      0              0              0              0.63118774   
     20200   1.0127195      0.63718072    -3.4231874     -2.3692957     -0.2650626     -0.22564417    -0.36866603    -0.20087759    -0.3655263      0.26932431     0.037606147    7.0154147      7.0154147      7.0154147      0              0              0              0.63718072   
     20300   1.0124436      0.64336987    -3.3836514     -1.7092858      0.095507406   -0.16067954     0.45910917    -0.011907415    0.2034455      0.13707318    -0.30708908     6.9928464      6.9928464      6.9928464      0              0              0              0.64336987   
     20400   1.0594273      0.64870247    -3.3860624     -1.320845       0.2854421      0.78449928    -0.11220766     0.18403468    -0.11550608    -0.058217601   -0.029097981    6.9736323      6.9736323      6.9736323      0              0              0              0.64870247   
     20500   1.05244        0.65280137    -3.3230108     -1.5808855      0.10169377     0.01092875    -0.15892824     0.45308079     0.069626238   -0.077768971   -0.068983031    6.959006       6.959006       6.959006       0              0              0              0.65280137   
     20600   1.1116423      0.65678129    -3.3972581     -1.2432319      0.29549189     0.73443157     0.20360014    -0.051556023    0.067340494    0.31119317    -0.076942235    6.9449209      6.9449209      6.9449209      0              0              0              0.65678129   
     20700   1.0773876      0.66079851    -3.3860876     -1.4963533      0.16924451     0.27865059    -0.14971963     0.37880258     0.086682931    0.27309712    -0.031291068    6.9308188      6.9308188      6.9308188      0              0              0              0.66079851   
     20800   1.063885       0.66494329    -3.4612799     -1.8292628      0.026699749    0.23409947    -0.025987595   -0.12801262     0.15096832     0.40062557     0.27264657     6.9163881      6.9163881      6.9163881      0              0              0              0.66494329   
     20900   0.97368621     0.66944418    -3.4272302     -1.3229302      0.39623383     0.37854929     0.67128262     0.1388696      0.23124885     0.043951585   -0.060498304    6.9008529      6.9008529      6.9008529      0              0              0              0.66944418   
     21000   1.0044686      0.67408277    -3.5336694     -2.374392      -0.20828663    -0.17999104    -0.49073963     0.045870793   -0.072720793    0.19364266     0.23968711     6.8849874      6.8849874      6.8849874      0              0              0              0.67408277   
     21100   0.98023647     0.67961536    -3.5504259     -1.8403678      0.15263859     0.22144675     0.20803991     0.028429114    0.21962555     0.17568319    -0.11960892     6.8662535      6.8662535      6.8662535      0              0              0              0.67961536   
     21200   1.0314641      0.68481746    -3.659666      -2.4313233     -0.19368972    -0.64256011     0.18972604    -0.12823508     0.13785553     0.08961475     0.16200495     6.8488231      6.8488231      6.8488231      0              0              0              0.68481746   
     21300   1.008039       0.69052761    -3.6555871     -2.4944316     -0.21553417    -0.11483553    -0.058927757   -0.47283922    -0.064794069    0.16038799    -0.16829565     6.8298926      6.8298926      6.8298926      0              0              0              0.69052761   
     21400   0.97873797     0.69655853    -3.6408784     -1.6986533      0.30487645     0.57595314     0.28686149     0.051814727    0.01230086    -0.00032459614  0.32696309     6.810124       6.810124       6.810124       0              0              0              0.69655853   
     21500   0.96884536     0.70195721    -3.6633398     -2.1757762      0.02652242     0.099938954   -0.4154238      0.3950521     -0.35558454     0.43316701    -0.053458842    6.7926204      6.7926204      6.7926204      0              0              0              0.70195721   
     21600   1.0009438      0.7066099     -3.7378134     -1.6808723      0.36167669     0.58379726    -0.04825759     0.5494904     -0.015302751   -0.0050369322  -0.64442422     6.7776789      6.7776789      6.7776789      0              0              0              0.7066099    
     21700   0.93951769     0.71098016    -3.6892616     -2.0850075      0.13057724     0.29733954     0.2843407     -0.18994852    -0.11425455     0.11793604     0.079315513    6.7637633      6.7637633      6.7637633      0              0              0              0.71098016   
     21800   0.95894027     0.71616242    -3.7689229     -2.6842205     -0.22560158    -0.41428817    -0.25336343    -0.009153134    0.20271168    -0.10569987     0.45758045     6.7474092      6.7474092      6.7474092      0              0              0              0.71616242   
     21900   0.93314828     0.72213497    -3.7914088     -3.0812566     -0.44809894    -0.52757436    -0.63931222    -0.17741024     0.081299492   -0.051808421    0.12593414     6.7287558      6.7287558      6.7287558      0              0              0              0.72213497   
     22000   0.93734606     0.72857699    -3.8604518     -2.5389684     -0.051335288   -0.55938663    -0.1117159      0.51709667    -0.11582962    -0.043358783    0.083824397    6.7088654      6.7088654      6.7088654      0              0              0              0.72857699   
     22100   0.97923585     0.73471366    -3.9797823     -2.8845469     -0.24464239    -0.4960807     -0.21143116    -0.026415301    0.37283144     0.052849672   -0.010668279    6.6901346      6.6901346      6.6901346      0              0              0              0.73471366   
     22200   0.91464533     0.74031125    -3.9201485     -2.4613722      0.063039631    0.089488059   -0.07508414     0.17471497    -0.14711972    -0.055790611   -0.28526693     6.6732302      6.6732302      6.6732302      0              0              0              0.74031125   
     22300   0.9499083      0.74560572    -3.9850218     -2.5245905      0.028938411    0.065912843   -0.37816863     0.39907102     0.42048885     0.11241917     0.12512984     6.6573974      6.6573974      6.6573974      0              0              0              0.74560572   
     22400   0.91700521     0.75144289    -3.9185703     -1.809135       0.50606607     0.76032807     0.32908846     0.42878169    -0.08654679    -0.045603022    0.14627077     6.6401145      6.6401145      6.6401145      0              0              0              0.75144289   
     22500   1.0177962      0.75584442    -3.9827799     -3.0184558     -0.38117698    -0.33192831    -0.47615329    -0.33544933    -0.14887357    -0.24476335     0.29261309     6.6272002      6.6272002      6.6272002      0              0              0              0.75584442   
     22600   1.0750184      0.76090356    -3.9733635     -1.6123179      0.52334993     0.30641515     0.39072243     0.87291222    -0.079703633    0.7287926     -0.084975967    6.6124797      6.6124797      6.6124797      0              0              0              0.76090356   
     22700   1.1425935      0.7652998     -4.0231278     -1.9872447      0.22998111     0.05638007     0.89688343    -0.26332016     0.093194024    0.10610392     0.094100157    6.5997937      6.5997937      6.5997937      0              0              0              0.7652998    
     22800   1.090453       0.76896223    -3.9520127     -1.5614885      0.53339637     0.89926243    -0.098649387    0.79957606     0.286989       0.0023105613  -0.22859367     6.5892991      6.5892991      6.5892991      0              0              0              0.76896223   
     22900   1.0825413      0.77152729    -3.9915423     -1.3577039      0.71411553     1.2533052      0.5303079      0.35873355     0.17900927    -0.29196619    -0.3512341      6.5819887      6.5819887      6.5819887      0              0              0              0.77152729   
     23000   1.0798269      0.77399985    -4.0643439     -1.8659674      0.41284794     0.8008466      0.031682936    0.40601428     0.0068133469  -0.24911786     0.3069658      6.5749724      6.5749724      6.5749724      0              0              0              0.77399985   
     23100   1.0688529      0.77682576    -4.1197939     -2.2795433      0.17301159     0.42690752    -0.075764058    0.16789132    -0.44874871    -0.12182753    -0.052889821    6.56699        6.56699        6.56699        0              0              0              0.77682576   
     23200   1.034219       0.78038087    -4.1277896     -2.1153117      0.33265936     0.62699792     0.041405727    0.32957442     0.69567582    -0.45655883    -0.28710411     6.5570026      6.5570026      6.5570026      0              0              0              0.78038087   
     23300   1.0141507      0.78462039    -4.1347875     -3.244531      -0.44463978    -0.73299206    -0.41614669    -0.18478058     0.066433887    0.047514329    0.010872927    6.5451715      6.5451715      6.5451715      0              0              0              0.78462039   
     23400   1.0237591      0.79011068    -4.1889893     -2.7965906     -0.097371609    0.12810004    -0.15425232    -0.26596255     0.11671676     0.30338123    -0.42790075     6.529976       6.529976       6.529976       0              0              0              0.79011068   
     23500   1.0090573      0.79520366    -4.2040316     -2.0699118      0.45406256     0.46051388     0.83720559     0.064468226    0.18068993     0.066964506   -0.30408636     6.5160054      6.5160054      6.5160054      0              0              0              0.79520366   
     23600   0.9731798      0.79956457    -4.1788888     -2.2371313      0.35565116     0.82471651     0.14696861     0.095268364    0.27241026    -0.1124936      0.17619889     6.5041375      6.5041375      6.5041375      0              0              0              0.79956457   
     23700   0.99837863     0.80326456    -4.2373928     -1.7627056      0.71899998     0.72557204     0.5402045      0.8912234     -0.05921855     0.34347359    -0.43812203     6.4941357      6.4941357      6.4941357      0              0              0              0.80326456   
     23800   1.0152045      0.80612536    -4.282754      -1.8775605      0.65222929     0.71559932     0.54975815     0.6913304      0.14603415     0.15883342    -0.094819468    6.4864444      6.4864444      6.4864444      0              0              0              0.80612536   
     23900   0.94299292     0.80855368    -4.197353      -2.0414686      0.5501601      1.0315395      0.23852431     0.38041644    -0.049789969    0.13184332     0.060282975    6.4799443      6.4799443      6.4799443      0              0              0              0.80855368   
     24000   0.97460254     0.81054259    -4.2680389     -1.5818091      0.90753912     0.62021766     1.2177195      0.88468019    -0.48413825     0.41675881     0.2421432      6.4746398      6.4746398      6.4746398      0              0              0              0.81054259   
     24100   0.93640216     0.81250337    -4.2423765     -1.7562428      0.8040485      0.81249317     1.1821426      0.41750978     0.080672632   -0.13733405     0.020240693    6.4694273      6.4694273      6.4694273      0              0              0              0.81250337   
     24200   0.90627022     0.81478494    -4.2370385     -2.1651259      0.53279846     1.1111151      0.58997562    -0.10269534    -0.39445303     0.40477571     0.31173103     6.4633831      6.4633831      6.4633831      0              0              0              0.81478494   
     24300   0.97153867     0.81723177    -4.3673136     -2.0093703      0.67452959     0.59314391     0.78262533     0.64781951     0.27640322    -0.17283139    -0.17726761     6.4569261      6.4569261      6.4569261      0              0              0              0.81723177   
     24400   0.95252356     0.81953608    -4.350942      -2.6362914      0.21830147     0.89446059    -0.010537243   -0.22901895    -0.090975474    0.18764281     0.081320856    6.4508687      6.4508687      6.4508687      0              0              0              0.81953608   
     24500   0.97185517     0.82279458    -4.3611624     -2.3637441      0.40909681     0.42913406     0.32729218     0.47086419     0.11717925    -0.14084821    -0.087434732    6.4423417      6.4423417      6.4423417      0              0              0              0.82279458   
     24600   0.97671337     0.82638227    -4.3361182     -2.1493013      0.54772026     0.62241422     0.38269507     0.63805149     0.0023853609   0.57245104    -0.47791513     6.4330051      6.4330051      6.4330051      0              0              0              0.82638227   
     24700   1.0312518      0.82900036    -4.3689977     -1.7676675      0.80050294     0.98660832     0.2604651      1.1544354      0.67057244     0.27983575    -0.1382911      6.4262259      6.4262259      6.4262259      0              0              0              0.82900036   
     24800   1.0773165      0.83034964    -4.3804263     -1.5045742      0.95713435     0.92693933     0.78202256     1.1624412     -0.16774451    -0.40127891     0.07045426     6.4227432      6.4227432      6.4227432      0              0              0              0.83034964   
     24900   1.1267926      0.83071786    -4.4033845     -1.9424084      0.5884791      0.42692318     0.39331801     0.94519612     0.20798745     0.17546138    -0.23395816     6.4217941      6.4217941      6.4217941      0              0              0              0.83071786   
     25000   1.0863327      0.83139984    -4.3381316     -1.4662557      0.94516884     0.9285628      0.71679636     1.1901474     -0.16138108     0.17795124     0.65066752     6.4200378      6.4200378      6.4200378      0              0              0              0.83139984   
     25100   1.0759658      0.83138543    -4.3729601     -1.4253823      1.0140626      1.2652488      0.23671528     1.5402237     -0.64459527     0.19777346     0.16090852     6.4200748      6.4200748      6.4200748      0              0              0              0.83138543   
     25200   0.94666064     0.83162689    -4.275346      -1.0300541      1.3853399      1.7598686      1.1758323      1.2203187     -0.27602309     0.43454607     0.25696605     6.4194534      6.4194534      6.4194534      0              0              0              0.83162689   
     25300   1.0331632      0.8321393     -4.4999507     -2.5710846      0.29266346    -0.058556525    0.15407467     0.78247224    -0.0401022      0.034247583   -0.1016575      6.4181355      6.4181355      6.4181355      0              0              0              0.8321393    
     25400   0.93872167     0.83385589    -4.4063229     -2.4018127      0.45745952     0.21272096     0.84385568     0.31580192     0.20541115    -0.24418841     0.0028236664   6.4137283      6.4137283      6.4137283      0              0              0              0.83385589   
     25500   0.89420507     0.8362406     -4.3439279     -1.0221935      1.510656       1.4433897      1.6756983      1.4128799     -0.086597725    0.062295959   -0.19948872     6.4076258      6.4076258      6.4076258      0              0              0              0.8362406    
     25600   0.99268014     0.83753293    -4.4707544     -2.2031471      0.59847986     0.79904036     0.82643366     0.16996556    -0.24985624    -0.085714156    0.41538595     6.4043284      6.4043284      6.4043284      0              0              0              0.83753293   
     25700   1.0074391      0.83948269    -4.4676446     -2.1702629      0.60578508     0.71064964     0.96327629     0.14342931     0.038826832    0.22062349     0.29036997     6.3993664      6.3993664      6.3993664      0              0              0              0.83948269   
     25800   0.96370907     0.84111913    -4.3728607     -1.6289511      0.99831192     0.81875359     1.0956585      1.0805237     -0.30183625    -0.0048154925  -0.30763796     6.3952136      6.3952136      6.3952136      0              0              0              0.84111913   
     25900   1.0525492      0.84210603    -4.4791049     -1.5033596      1.0754579      1.368734       0.65518962     1.20245       -0.20529129     0.016284389   -0.37477169     6.3927144      6.3927144      6.3927144      0              0              0              0.84210603   
     26000   0.99883626     0.84324335    -4.383075      -1.1600152      1.3279524      0.69845086     1.1952951      2.0901113      0.2268357      0.069783187    0.20740687     6.3898391      6.3898391      6.3898391      0              0              0              0.84324335   
     26100   1.0320368      0.8431364     -4.4128546     -1.56742        1.0003581      1.0901117      1.1744329      0.73652966    -0.47825183    -0.1664989     -0.035125275    6.3901092      6.3901092      6.3901092      0              0              0              0.8431364    
     26200   1.0365076      0.84288747    -4.3892232     -0.9925044      1.4173776      0.98726388     1.7746781      1.4901907      0.034704027    0.24731969     0.036277245    6.3907382      6.3907382      6.3907382      0              0              0              0.84288747   
     26300   1.019992       0.84211923    -4.3426062     -1.7453135      0.82294535     1.3694129      0.43392931     0.6654939     -0.094871781    0.91779711    -0.057820747    6.392681       6.392681       6.392681       0              0              0              0.84211923   
     26400   1.0581041      0.8420351     -4.3967355     -1.6113737      0.92328492     1.1642412      0.83018819     0.77542541     0.013348479    0.012056979   -0.1041287      6.3928939      6.3928939      6.3928939      0              0              0              0.8420351    
     26500   1.0427671      0.84201544    -4.4127091     -1.9264567      0.71182646     0.68650695     0.60899212     0.8399803      0.13765135    -0.18889084    -0.24784826     6.3929436      6.3929436      6.3929436      0              0              0              0.84201544   
     26600   1.0185742      0.84221231    -4.4494087     -1.8131872      0.85446231     0.38871107     1.2511232      0.92355266     0.10573736    -0.11189773    -0.14518446     6.3924455      6.3924455      6.3924455      0              0              0              0.84221231   
     26700   0.95520157     0.84200197    -4.4227851     -1.8934345      0.84484354     0.52669221     1.5109332      0.49690523     0.44394876     0.82697692     0.30266061     6.3929777      6.3929777      6.3929777      0              0              0              0.84200197   
     26800   0.9450677      0.8416784     -4.4524975     -2.0680118      0.74524666     0.10463072     1.2768904      0.85421882    -0.37285172    -0.20431059     0.10110483     6.3937969      6.3937969      6.3937969      0              0              0              0.8416784    
     26900   0.95203526     0.84237189    -4.4860211     -2.2218495      0.64576152     0.78871754     0.58942041     0.55914659     0.30304773     0.040090531    0.43780027     6.3920418      6.3920418      6.3920418      0              0              0              0.84237189   
     27000   0.97145499     0.84410459    -4.5153859     -2.1347737      0.7142012      0.55763726     1.0598284      0.52513789     0.025220265   -0.12578657     0.40726334     6.3876651      6.3876651      6.3876651      0              0              0              0.84410459   
     27100   1.0007638      0.84634524    -4.5408036     -2.7569772      0.22327086     0.30479269     0.13021003     0.23480986     0.35002798    -0.48910301    -0.23535718     6.3820231      6.3820231      6.3820231      0              0              0              0.84634524   
     27200   1.0356064      0.84927516    -4.559748      -2.1408122      0.6742421      0.59577712     0.87446984     0.55247934    -0.037654777    0.23293778     0.37662347     6.3746756      6.3746756      6.3746756      0              0              0              0.84927516   
     27300   1.0513577      0.85187244    -4.5368777     -1.3330378      1.265951       0.83647545     0.74405126     2.2173262      0.20090252     0.30735476     0.24230652     6.3681904      6.3681904      6.3681904      0              0              0              0.85187244   
     27400   0.96668076     0.85303531    -4.3630089     -1.2285209      1.3119039      1.0671427      1.7978108      1.0707581     -0.53788124     0.1348075     -0.2414591      6.3652953      6.3652953      6.3652953      0              0              0              0.85303531   
     27500   1.0688882      0.85331589    -4.4750123     -1.499939       1.0703356      1.4117139      1.0494601      0.74983281    -0.14992252    -0.13909191    -0.44537049     6.3645976      6.3645976      6.3645976      0              0              0              0.85331589   
     27600   1.0528077      0.85305946    -4.4271163     -0.73348137     1.645877       1.4193762      1.8551571      1.6630976      0.14072803    -0.37353241     0.23549483     6.3652352      6.3652352      6.3652352      0              0              0              0.85305946   
[...]
    136000   0.10366025     0.26931987    -2.4601968     -7.4020028     -1.2478125     -2.9725512     -0.4400264     -0.33086007    -0.14788295    -0.093841969    0.036031814    23.146132      5.9407042      5.9407042      0              0              0              0.26931987   
    137000   0.088326669    0.26664009    -2.3315646     -7.7033764     -1.3340826     -3.2427946     -0.45706203    -0.30239125    -0.13123973    -0.072153075    0.06192892     23.378755      5.9407042      5.9407042      0              0              0              0.26664009   
    138000   0.10598122     0.26398698    -2.2979927     -7.6198608     -1.3151459     -3.2178069     -0.46534895    -0.26228186    -0.15568588    -0.11228396     0.035257764    23.613715      5.9407042      5.9407042      0              0              0              0.26398698   
    139000   0.10058549     0.26136026    -2.1965199     -7.308649      -1.2503125     -3.2848457     -0.28249888    -0.18359305    -0.17915543    -0.054801767    0.012629646    23.851037      5.9407042      5.9407042      0              0              0              0.26136026   
    140000   0.089342952    0.25875968    -2.0692436     -7.5086055     -1.3109015     -3.4406276     -0.36395586    -0.12812118    -0.10326412    -0.11393804     0.041466463    24.090744      5.9407042      5.9407042      0              0              0              0.25875968   
    141000   0.15717466     0.25618498    -2.10052       -7.2276418     -1.2487166     -3.114499      -0.35158195    -0.28006896    -0.18857603    -0.035825659    0.05667159     24.33286       5.9407042      5.9407042      0              0              0              0.25618498   
    142000   0.19507674     0.2536359     -2.5427222     -5.7485836     -0.80633467    -1.835728      -0.37230713    -0.21096891     0.049825859    0.01379381     0.072796941    24.577409      5.9407042      5.9407042      0              0              0              0.2536359    
    143000   0.088926475    0.25111218    -2.6956596     -5.4968859     -0.66977305    -1.5311237     -0.3594967     -0.11869873    -0.036957118    0.0076509503   0.070729744    24.824416      5.9407042      5.9407042      0              0              0              0.25111218   
    144000   0.10742156     0.24861357    -2.693214      -5.5644953     -0.68518081    -1.5734159     -0.34095072    -0.14117583     0.044677839    0.066723787    0.095224402    25.073906      5.9407042      5.9407042      0              0              0              0.24861357   
    145000   0.096011758    0.24613982    -2.7234848     -5.3572627     -0.62140804    -1.3894476     -0.28459817    -0.19017833     0.075290501    0.089846312    0.059342415    25.325902      5.9407042      5.9407042      0              0              0              0.24613982   
    146000   0.10038326     0.24369069    -2.6427968     -5.4261859     -0.64981477    -1.5351337     -0.25093304    -0.16337758     0.06870236     0.064492075    0.084509424    25.580432      5.9407042      5.9407042      0              0              0              0.24369069   
    147000   0.094640383    0.24126593    -2.6252568     -5.601535      -0.68377593    -1.551014      -0.31106998    -0.18924383     0.086058243    0.10787638     0.042180208    25.83752       5.9407042      5.9407042      0              0              0              0.24126593   
    148000   0.098812586    0.23886529    -2.5979955     -5.448353      -0.65098073    -1.5724641     -0.22687709    -0.153601       0.017364813    0.111977       0.038843495    26.097191      5.9407042      5.9407042      0              0              0              0.23886529   
    149000   0.10276597     0.23648854    -2.5619252     -5.0548538     -0.5689284     -1.430329      -0.1790867     -0.097369546    0.079446314    0.089960121    0.085376379    26.359472      5.9407042      5.9407042      0              0              0              0.23648854   
    150000   0.099068985    0.23413544    -2.5605544     -5.4282552     -0.64186343    -1.507221      -0.2183046     -0.20006474     0.079829794    0.053041736    0.072491376    26.624389      5.9407042      5.9407042      0              0              0              0.23413544   
    151000   0.10150869     0.23180576    -2.506557      -5.1903805     -0.5974952     -1.444163      -0.25271655    -0.095606       0.064337329    0.11319885     0.082003447    26.891969      5.9407042      5.9407042      0              0              0              0.23180576   
    152000   0.10532398     0.22949925    -2.5339988     -5.3391997     -0.61806171    -1.4435383     -0.23064681    -0.17999999     0.12440383     0.086344596    0.02666067     27.162238      5.9407042      5.9407042      0              0              0              0.22949925   
    153000   0.10441221     0.2272157     -2.5332427     -5.4962949     -0.64423652    -1.6076142     -0.18465027    -0.14044505     0.1015213      0.14415989     0.021730739    27.435223      5.9407042      5.9407042      0              0              0              0.2272157    
    154000   0.10379824     0.22495486    -2.4890544     -5.5120275     -0.64989297    -1.596916      -0.21724699    -0.13551591     0.12627013     0.070500152    0.035466364    27.710951      5.9407042      5.9407042      0              0              0              0.22495486   
    155000   0.17306597     0.22271652    -2.6483984     -4.4981556     -0.42681762    -1.0101655     -0.17496778    -0.095319582    0.055756998    0.1794776     -0.0071637011   27.989451      5.9407042      5.9407042      0              0              0              0.22271652   
    156000   0.11063889     0.22050046    -2.8324399     -4.3332917     -0.33395403    -0.83807541    -0.10082792    -0.062958755    0.015646911    0.14244826     0.025576284    28.27075       5.9407042      5.9407042      0              0              0              0.22050046   
    157000   0.083866965    0.21830644    -2.8264952     -4.6417152     -0.38509085    -0.92054158    -0.17508715    -0.059643821    0.054162194    0.23055937     0.015206839    28.554875      5.9407042      5.9407042      0              0              0              0.21830644   
    158000   0.10100072     0.21613426    -2.8024529     -5.1061244     -0.48225743    -1.1228146     -0.21710336    -0.1068543      0.064567677    0.25930576     0.037391173    28.841857      5.9407042      5.9407042      0              0              0              0.21613426   
    159000   0.11121434     0.21398368    -2.7473511     -5.0453796     -0.47932654    -1.120308      -0.18087618    -0.13679548     0.038696737    0.23012345     0.014556943    29.131722      5.9407042      5.9407042      0              0              0              0.21398368   
    160000   0.14340046     0.21185451    -3.0650457     -3.3599129     -0.098010127   -0.17646792    -0.11455945    -0.003003016   -0.0011092409  -0.002052763    0.0084411958   29.424501      5.9407042      5.9407042      0              0              0              0.21185451   
    161000   0.098531633    0.20974652    -3.2131355     -3.1725877     -0.020309317   -0.029897351   -0.019359043   -0.011671558    0.08222595    -0.0097304515  -0.022249985    29.720222      5.9407042      5.9407042      0              0              0              0.20974652   
    162000   0.10265205     0.20765951    -3.2668257     -3.2709081     -0.029693528    0.010988989   -0.062163947   -0.037905628   -0.047914243   -0.0060883267   0.026214554    30.018915      5.9407042      5.9407042      0              0              0              0.20765951   
    163000   0.10134501     0.20559326    -3.3627567     -3.4682711     -0.047991411   -0.050950677   -0.05371436    -0.039309195    0.034610478    0.0058004726   0.014376146    30.32061       5.9407042      5.9407042      0              0              0              0.20559326   
    164000   0.097500563    0.20354758    -3.423562      -3.4786668     -0.037124187   -0.027509684   -0.077130159   -0.0067327188   0.017610099   -0.008748959   -0.0011661038   30.625337      5.9407042      5.9407042      0              0              0              0.20354758   
    165000   0.10268755     0.20152224    -3.4462045     -3.3614525     -0.012551016    0.016378504   -0.0054963096  -0.048535242    0.0094570362   0.0086485469  -0.022101833    30.933127      5.9407042      5.9407042      0              0              0              0.20152224   
    166000   0.10101674     0.19951706    -3.4998594     -3.7009803     -0.063825225   -0.033175633   -0.099680727   -0.058619315    0.017956828   -0.025723699    0.021575456    31.24401       5.9407042      5.9407042      0              0              0              0.19951706   
    167000   0.105778       0.19753184    -3.5987857     -3.7871807     -0.062180988    0.024326092   -0.10903361    -0.10183545    -0.0072298612   0.0089332847   0.044451382    31.558018      5.9407042      5.9407042      0              0              0              0.19753184   
    168000   0.10646532     0.19556636    -3.6666093     -3.7709433     -0.046799644    0.015727065   -0.12043314    -0.035692857   -0.024906639    0.014270637    0.01180862     31.875181      5.9407042      5.9407042      0              0              0              0.19556636   
    169000   0.11462359     0.19362044    -3.7364096     -3.7558734     -0.033538506    0.033643959   -0.046618625   -0.087640852   -0.034542777   -0.0025058555   0.031750781    32.195532      5.9407042      5.9407042      0              0              0              0.19362044   
    170000   0.091497028    0.19169389    -3.7613291     -3.8858799     -0.045502916   -0.027364629   -0.019380498   -0.089763621    0.02123137     0.059059756   -0.0093170035   32.519103      5.9407042      5.9407042      0              0              0              0.19169389   
    171000   0.11708336     0.1897865     -3.8844857     -4.2172281     -0.087558745   -0.035648976   -0.13180788    -0.095219373    0.01185784    -0.052776448    0.024531023    32.845925      5.9407042      5.9407042      0              0              0              0.1897865    
    172000   0.11216632     0.18789809    -4.0492294     -4.6221026     -0.12645224    -0.045266071   -0.23529531    -0.098795336   -0.023401514   -0.017561373    0.035819011    33.176032      5.9407042      5.9407042      0              0              0              0.18789809   
    173000   0.10116576     0.18602848    -4.1609038     -4.7534856     -0.12575047     0.0062190704  -0.17874692    -0.20472357    -0.004499119   -0.0058301652   0.037388918    33.509457      5.9407042      5.9407042      0              0              0              0.18602848   
    174000   0.10958976     0.18417746    -4.2891708     -4.3869063     -0.043750226    0.058832142   -0.10589755    -0.084185271    0.024087878   -0.02476383    -0.016792666    33.846232      5.9407042      5.9407042      0              0              0              0.18417746   
    175000   0.10595674     0.18234487    -4.4189383     -4.7771254     -0.08559061     0.037797666   -0.15852833    -0.13604116     0.026411309    0.036890087    0.039170115    34.186393      5.9407042      5.9407042      0              0              0              0.18234487   
    176000   0.1009304      0.18053051    -4.4976384     -4.7854077     -0.071950924    0.09360818    -0.17595343    -0.13350752     0.037607435    0.021692279    0.033706895    34.529972      5.9407042      5.9407042      0              0              0              0.18053051   
    177000   0.1006138      0.1787342     -4.5554918     -4.5713159     -0.026971036    0.074339791   -0.09505313    -0.06019977    -0.010120421   -0.019659173    0.071146192    34.877003      5.9407042      5.9407042      0              0              0              0.1787342    
    178000   0.1061179      0.17695576    -4.6152611     -4.8920946     -0.070012464    0.019890878   -0.15488091    -0.075047363   -0.0078206717   0.031061737    0.032672232    35.227523      5.9407042      5.9407042      0              0              0              0.17695576   
    179000   0.10114046     0.17519502    -4.6973214     -5.1473578     -0.095718374   -0.020299853   -0.15087032    -0.11598495     0.011526984   -0.062800168    0.051956515    35.581566      5.9407042      5.9407042      0              0              0              0.17519502   
    180000   0.10110854     0.1734518     -4.7216972     -4.8947242     -0.051078649    0.033656792   -0.061800635   -0.1250921      0.031687406   -0.020570697    0.054202352    35.939166      5.9407042      5.9407042      0              0              0              0.1734518    
    181000   0.096165802    0.17172593    -4.7815189     -4.7044759     -0.010379185    0.083428128   -0.079829872   -0.03473581    -0.0357386      0.00085498625  0.075154307    36.300361      5.9407042      5.9407042      0              0              0              0.17172593   
    182000   0.10162891     0.17001723    -4.775994      -4.9602113     -0.051916827   -0.028529224   -0.060473166   -0.06674809    -0.022594486   -0.040472559    0.0359819      36.665186      5.9407042      5.9407042      0              0              0              0.17001723   
    183000   0.10060809     0.16832553    -4.7693917     -4.8857087     -0.040776792    0.018323258   -0.060902497   -0.079751137   -0.008011488   -0.016344002    0.034041527    37.033677      5.9407042      5.9407042      0              0              0              0.16832553   
    184000   0.10342905     0.16665066    -4.8236069     -5.4340625     -0.11587121    -0.05912489    -0.11442343    -0.17406532     0.0065624099   0.0070841958  -0.031409458    37.405872      5.9407042      5.9407042      0              0              0              0.16665066   
    185000   0.10743826     0.16499246    -4.8074944     -5.3482489     -0.10516111    -0.12237585    -0.076446664   -0.11666081    -0.034524502    0.0016209657   0.017417306    37.781807      5.9407042      5.9407042      0              0              0              0.16499246   
    186000   0.10251421     0.16335076    -4.8249848     -5.0062827     -0.049643838    0.0046309225  -0.012730222   -0.14083221    -0.053323872   -0.0064085474   0.044943119    38.16152       5.9407042      5.9407042      0              0              0              0.16335076   
    187000   0.11109823     0.16172539    -4.8169145     -4.7414242     -0.013279686    0.077741126   -0.055710254   -0.061869931   -0.020866744   -0.022647638   -0.0033426546   38.54505       5.9407042      5.9407042      0              0              0              0.16172539   
    188000   0.10351778     0.16011619    -4.81826       -5.0583405     -0.057435235   -0.024989175   -0.044603971   -0.10271256    -0.0070882336   0.013292583    0.0096074446   38.932434      5.9407042      5.9407042      0              0              0              0.16011619   
    189000   0.10686911     0.15852301    -4.8296033     -5.2567216     -0.084538944   -0.038354581   -0.10214458    -0.11311767    -0.0034136305  -0.033520411   -0.024644238    39.323712      5.9407042      5.9407042      0              0              0              0.15852301   
    190000   0.10238057     0.15694568    -4.7994741     -5.3257866     -0.096894756   -0.048026849   -0.092649315   -0.1500081      0.034513213    0.044344571    0.064005403    39.718921      5.9407042      5.9407042      0              0              0              0.15694568   
    191000   0.096396849    0.15538405    -4.8189715     -5.2592951     -0.082522467   -0.0039738595  -0.11363103    -0.12996251     5.0703746e-05 -0.028517923    0.007411044    40.118103      5.9407042      5.9407042      0              0              0              0.15538405   
    192000   0.092809195    0.15383795    -4.8262836     -4.9867544     -0.04181434     0.040982365   -0.074806152   -0.091619235   -0.0085325469  -0.0048603068  -0.00077282769  40.521297      5.9407042      5.9407042      0              0              0              0.15383795   
    193000   0.10442906     0.15230724    -4.8150528     -5.0483233     -0.053879498    0.017038546   -0.048483551   -0.13019349     0.0068305428  -0.012262425    0.0023491579   40.928543      5.9407042      5.9407042      0              0              0              0.15230724   
    194000   0.099150873    0.15079175    -4.8128262     -5.3063875     -0.087945035   -0.04910208    -0.1169925     -0.097740526    0.031460484    0.023929843   -0.00594618     41.339881      5.9407042      5.9407042      0              0              0              0.15079175   
    195000   0.089965192    0.14929135    -4.8083375     -5.247916      -0.077882803   -0.036548802   -0.086079635   -0.11101997    -0.043723538   -0.011396092   -0.0015580121   41.755354      5.9407042      5.9407042      0              0              0              0.14929135   
    196000   0.089857233    0.14780588    -4.8273399     -5.0955126     -0.054054573    0.0039061312  -0.075882346   -0.090187504    0.0053089988   0.021603071    0.01091886     42.175002      5.9407042      5.9407042      0              0              0              0.14780588   
    197000   0.097479469    0.14633518    -4.8156236     -5.2914908     -0.082660135   -0.06508063    -0.071830656   -0.11106912     0.015551335   -0.0069738415   0.015629312    42.598868      5.9407042      5.9407042      0              0              0              0.14633518   
    198000   0.095418134    0.14487912    -4.8163155     -5.2740163     -0.079039774   -0.024023144   -0.079445628   -0.13365055     0.0011924493   0.0075158731   0.0065083123   43.026994      5.9407042      5.9407042      0              0              0              0.14487912   
    199000   0.094661888    0.14343755    -4.8253606     -5.1246976     -0.057455843    0.0038074358  -0.090677425   -0.085497539   -0.0028705309   0.0080716384   0.01548738     43.459422      5.9407042      5.9407042      0              0              0              0.14343755   
    200000   0.098923398    0.14201033    -4.8079607     -5.4302725     -0.099401415   -0.074707608   -0.13373102    -0.089765613   -0.010275922    0.013042164   -0.015315834    43.896197      5.9407042      5.9407042      0              0              0              0.14201033   
Loop time of 26.718 on 12 procs for 200000 steps with 200 atoms

Performance: 1293511.463 tau/day, 7485.599 timesteps/s
97.5% CPU use with 12 MPI tasks x 1 OpenMP threads

MPI task timing breakdown:
Section |  min time  |  avg time  |  max time  |%varavg| %total
---------------------------------------------------------------
Pair    | 0.68691    | 1.114      | 1.7046     |  33.3 |  4.17
Bond    | 0.041881   | 0.067401   | 0.10166    |   7.8 |  0.25
Neigh   | 0.040882   | 0.042556   | 0.044806   |   0.6 |  0.16
Comm    | 6.1359     | 6.7602     | 7.2944     |  15.3 | 25.30
Output  | 0.02476    | 0.024915   | 0.026345   |   0.3 |  0.09
Modify  | 17.493     | 18.107     | 18.891     |  10.5 | 67.77
Other   |            | 0.6018     |            |       |  2.25

Nlocal:        16.6667 ave          41 max           0 min
Histogram: 6 0 0 0 0 0 1 2 2 1
Nghost:          255.5 ave         514 max          25 min
Histogram: 6 0 0 0 0 0 0 0 2 4
Neighs:        1005.83 ave        2386 max           0 min
Histogram: 6 0 0 0 0 0 0 2 3 1

Total # of neighbors = 12070
Ave neighs/atom = 60.35
Ave special neighs/atom = 9.63
Neighbor list builds = 540
Dangerous builds = 0
System init for write_data ...
Generated 0 of 1 mixed pair_coeff terms from geometric mixing rule
WARNING: Not all mixed pair coeffs generated from mixing. Use write_data with 'pair ij' option to store all pair coeffs. (src/write_data.cpp:309)
Total wall time: 0:00:26
