LAMMPS data file via write_data, version 23 Jun 2022, timestep = 200000

200 atoms
2 atom types
218 bonds
2 bond types

78.05190153092205 121.94809846907795 xlo xhi
97.02964787718227 102.97035212281773 ylo yhi
97.02964787718227 102.97035212281773 zlo zhi

Masses

1 1
2 1.5

Pair Coeffs # lj/cut

1 1 1
2 1 1

Bond Coeffs # harmonic

1 100 1.2
2 100 1.2

Atoms # full

73 37 1 0 113.54230277130964 97.57723671831624 98.42679481089668 -3 1 0
155 78 1 0 113.52063211669403 99.48920059530751 97.46616501417184 1 -1 1
114 57 1 0 113.70439574901955 99.20007240393163 98.49507515426325 -2 0 0
176 96 2 0 114.0088458209798 98.34142147026209 97.57045302549106 0 0 0
89 45 1 0 114.31066545473234 98.31233235763436 98.65541776500964 1 0 1
104 52 1 0 114.54825548258111 99.20552618964558 97.76317814422052 -1 -1 1
82 41 1 0 116.77915256889949 98.72588980559085 98.33761751576401 0 -1 3
21 11 1 0 113.35360710758971 97.1963273347979 97.11822641482533 0 0 0
200 120 2 0 114.83628783434077 99.23983478520474 98.90791721820798 3 0 2
90 45 1 0 114.96875897606759 97.78353905780295 97.73212677218106 1 0 1
192 112 2 0 115.24491594751844 99.90050590054068 98.19542845498442 -1 0 0
173 93 2 0 115.35559695109637 98.13153200161655 98.7633802821231 -2 -1 1
199 119 2 0 117.57202689116048 97.1570674561827 98.74184674825428 1 0 0
141 71 1 0 115.54104941803556 98.84343823733313 98.01367512761583 0 2 0
142 71 1 0 115.65787228013912 99.56457677505655 97.14058775296769 2 0 0
47 24 1 0 116.36280664967859 99.57875068753427 97.94147344678854 -1 -2 0
190 110 2 0 116.02751118224288 97.88432509593954 97.97353543655427 0 0 0
152 76 1 0 116.41338814320338 97.05870121748784 98.6190188617832 0 1 -1
177 97 2 0 116.23970126915751 97.0301859312191 97.43205662886457 -2 -1 1
48 24 1 0 116.33279992630227 98.59693278611586 97.24485712983326 -1 -2 0
91 46 1 0 117.12028102308224 97.74110994472952 97.90531367170252 -2 0 -1
39 20 1 0 118.17188596927954 97.11118250446002 97.8447796118746 -1 1 1
92 46 1 0 117.56654556528073 98.20194268484732 98.91467912130967 -2 0 -1
78 39 1 0 117.60246423719008 99.29764109251634 98.70944819156239 1 -1 0
81 41 1 0 115.90341917036582 99.18432581136531 98.9896010508784 0 -1 3
132 66 1 0 111.98775415465286 99.23750976907627 99.88252542011026 0 2 0
149 75 1 0 112.32606242930248 97.3028220660448 100.13487850266783 -2 1 0
88 44 1 0 112.71461391707365 98.34399917261214 100.08844048223072 -1 1 2
74 37 1 0 113.30162957840881 97.0547425936614 99.50076277393379 -2 0 0
150 75 1 0 113.28176773217251 97.57579233652677 100.77937089212881 -2 1 0
87 44 1 0 113.10392671769412 99.49374886325106 100.14032554070114 -1 1 2
179 99 2 0 112.91894511339753 99.0618678567648 99.15003524802019 -1 -1 0
107 54 1 0 113.54774999601797 98.10496499804177 99.43107697824794 0 0 0
69 35 1 0 113.7115801533034 98.59097449577733 100.426133773035 0 0 1
163 83 2 0 113.97665290884106 99.08148289264143 99.52052461079333 0 -2 0
185 105 2 0 114.17660782022034 99.71519672820874 100.36872388793854 1 0 0
196 116 2 0 114.1668232084201 97.42543181410943 100.08024141987168 -1 1 1
49 25 1 0 114.49871603589304 97.33000771745623 99.0626152734839 -2 0 0
62 31 1 0 114.78832331359922 98.64494178186303 100.6264471010146 1 0 -2
108 54 1 0 114.73980796672353 98.27770513969212 99.63150288046742 0 0 0
23 12 1 0 115.07675922066461 99.36526823939653 99.88544658136647 -1 1 0
54 27 1 0 115.16041053063286 97.68711202427716 100.4409587022419 0 0 1
9 5 1 0 115.80010370019032 98.59579362304162 99.86983151952109 -3 -2 -1
53 27 1 0 115.66457638580903 97.34246448189548 99.51111864493156 0 0 1
161 81 2 0 116.14792050524619 99.70087490833598 100.08872785456585 1 -2 1
72 36 1 0 116.28517658346257 97.77871018910446 100.3097278960245 1 1 0
71 36 1 0 116.43483512843726 98.00792566031227 99.1358707638954 2 0 0
109 55 1 0 118.7864892820022 97.89217182659227 100.46757612244546 -1 -1 -1
187 107 2 0 116.7170982518926 98.95299414816502 100.56169853446363 -1 1 -1
117 59 1 0 116.74902352435811 97.0795039520186 99.6507327389357 0 -1 -1
10 5 1 0 116.8561874741182 98.94713854425176 99.44732350585488 -3 -2 -1
118 59 1 0 117.21563763687956 98.15561123451472 99.97772676651823 -2 1 -1
106 53 1 0 117.44250728029209 99.7001975074398 99.88402502724685 -2 2 2
57 29 1 0 117.47020012551141 97.11274904690657 100.5001146663066 -1 2 -1
58 29 1 0 117.79675652766198 98.19245329227412 100.88040080219562 -1 2 -1
110 55 1 0 118.0463664617178 97.55119842941735 99.64084363698557 -1 -1 -1
188 108 2 0 118.13387721806382 98.71115635899207 99.84857095212047 0 2 1
60 30 1 0 116.68676492171775 99.92037325702263 99.05181707150314 -2 0 1
146 73 1 0 112.24570051447544 98.6246937517953 101.94264164217047 -1 1 0
85 43 1 0 112.58785364833618 99.77018372576717 102.8233124238555 0 1 -2
5 3 1 0 112.47311209481629 99.79568281783419 101.74700308260121 0 0 1
22 11 1 0 112.6218295399359 97.53568896145795 102.16166258920136 0 0 -1
184 104 2 0 112.250858686106 97.91111328611203 101.09766196062154 -2 -1 3
30 15 1 0 113.24152392509555 98.28540654512959 101.60096173426976 1 0 0
86 43 1 0 113.38777739197428 99.2044437024379 102.09956468004135 0 1 -2
145 73 1 0 113.10872720082816 98.33400976927676 102.69703195489396 0 0 0
64 32 1 0 113.55814665391688 99.70403068641295 101.18192678497431 1 -1 -1
33 17 1 0 113.62953874696979 97.31341361912669 101.82699415919008 0 1 -1
102 51 1 0 114.1116183477681 98.15113753641137 102.31044145625195 -2 0 0
101 51 1 0 114.11013523129975 98.89919797193555 101.38425699492527 -2 0 0
1 1 1 0 114.41686968717484 97.25455547006965 102.85537911013373 -1 0 -1
170 90 2 0 114.45103684719491 99.91300545777739 101.9491338336761 0 -1 -2
4 2 1 0 114.24118249118929 99.09784617382287 102.69507154018154 0 -1 1
29 15 1 0 114.24726285584453 97.84301069106384 101.11435372288693 -1 2 0
93 47 1 0 114.8374199269889 97.35432075370181 101.82691302738658 0 0 1
61 31 1 0 114.990869576732 98.43079248338813 101.79305011485276 1 0 -2
63 32 1 0 114.85611172354078 99.56601514877565 101.05179380169275 2 -2 -1
171 91 2 0 115.43638847194086 99.3727494797996 102.04326279023867 1 2 1
138 69 1 0 115.52743195487062 97.55413653077787 102.78741353741124 1 -1 -1
197 117 2 0 115.76790971850556 97.66642374695567 101.34151715269667 0 1 -1
157 79 1 0 115.81906527352035 98.71378163800223 101.08718717710715 1 -2 -1
75 38 1 0 115.99849793484091 99.75514525774732 101.18847394664262 -1 1 -1
55 28 1 0 116.04855529591259 98.32520118812904 102.12796264263149 -1 -2 0
19 10 1 0 116.49499253107517 99.6444082002931 102.15662742708648 -2 0 -1
103 52 1 0 115.17530875547612 98.57315863213715 102.88346045759624 -1 -1 0
129 65 1 0 116.51789265929396 97.0679224655834 102.1971182004644 0 0 -1
40 20 1 0 117.3165795664367 97.13335123794833 102.92481396676547 0 0 0
56 28 1 0 116.82511940320492 97.96415361848686 101.24246226218587 -1 -2 0
154 77 1 0 117.50042558899989 97.26012045052528 101.83212133784777 -1 2 -4
191 111 2 0 118.27614140817538 97.21346727790723 101.16958469652596 -1 1 -2
70 35 1 0 112.74190424398236 98.98573941080967 101.0061407375312 -3 3 1
18 9 1 0 112.26971369586546 101.19002197798748 97.28842533810922 0 -1 1
14 7 1 0 112.45652425203434 102.43617592673519 97.2607229185389 -2 1 0
168 88 2 0 113.14563201207088 100.51227541873297 97.65162363608582 0 0 0
172 92 2 0 113.42759076498331 102.26240018867914 97.92869138466587 -1 -1 0
32 16 1 0 113.62869543221919 101.18676920757808 98.38465949273315 -1 -1 -1
95 48 1 0 114.05584657980987 102.18651886426615 97.13937017834718 0 2 1
113 57 1 0 114.10210322494079 100.24086537671916 98.11524579380551 -3 1 0
31 16 1 0 114.15868175560087 101.05480395274694 97.31414931826343 -1 -1 -1
165 85 2 0 114.50963584824083 101.75927383581285 98.00249591881759 0 2 0
96 48 1 0 114.3087926952026 102.92078906336275 98.02855749918464 0 2 1
2 1 1 0 115.18742288041818 102.57910498441721 97.45960762967019 -1 -1 0
67 34 1 0 114.91655886842031 101.97058498153888 98.93704111202126 0 -1 -1
8 4 1 0 114.82580259804726 100.84194726916508 98.61641641327914 -2 -1 0
66 33 1 0 115.21917374481946 100.87715345997836 97.56585853543079 -2 -2 0
198 118 2 0 116.02986382063463 102.16985432372363 98.02622371096926 3 0 1
59 30 1 0 116.11670251196433 100.5443086061734 98.22701055885561 0 -2 1
7 4 1 0 115.89151719193616 101.33253920467656 98.87555916486544 0 -3 0
35 18 1 0 116.90136983599996 102.03337792923696 98.72905479795831 -2 0 1
151 76 1 0 117.22911528654612 102.55074833917708 97.90776067857745 0 0 -1
169 89 2 0 116.52134069711695 100.40439015481162 97.15372020032119 1 1 3
133 67 1 0 116.89380384952614 100.9527569095352 98.88201443902247 -1 -1 1
52 26 1 0 116.77662363373241 101.2772091636847 97.76138454536266 -1 0 -1
77 39 1 0 117.18711755273401 100.26220215872397 98.12230135379208 0 0 0
11 6 1 0 117.78904589441808 101.86643494254014 97.26501905788508 -3 1 0
51 26 1 0 117.71067328629528 100.76797500915015 97.2298955571241 -1 0 -1
12 6 1 0 117.80188270591847 101.13908385590577 98.24801494235034 -3 1 0
84 42 1 0 118.09970019124923 102.18602096366996 98.48958366163237 0 -1 -2
122 61 1 0 118.64635736231716 101.12963642218484 97.57895728001668 -1 -2 -1
160 80 1 0 119.32125529970887 101.98587715080399 98.65492751848888 0 -1 0
159 80 1 0 118.81555858892658 102.19990569297636 97.59278430245037 0 -1 0
121 61 1 0 118.70172949314383 101.05238313427796 98.78338019957516 -1 -2 -1
156 78 1 0 114.58214084900393 100.06181168506363 97.10572413403652 1 -1 1
194 114 2 0 118.62551498726984 102.95829162016052 98.95497871152433 0 -1 -2
68 34 1 0 115.33476495372201 102.95206349202759 98.4862768845788 0 -1 -1
43 22 1 0 113.90705735902074 102.25626721407399 98.91522627614552 0 0 0
139 70 1 0 116.73739262588624 102.11928141905317 97.04457196586559 -1 -2 -1
158 79 1 0 111.85686501731618 102.07297763775158 100.86509038027756 1 -1 0
178 98 2 0 112.47233314603992 101.21118962845247 100.35817308532278 -2 2 2
131 66 1 0 112.59052235489935 100.28597250763296 99.57335630296248 0 2 0
6 3 1 0 112.2317360463658 100.05034684262624 100.58517812141498 0 0 1
99 50 1 0 112.83371818908535 102.32722357526335 100.33597544217041 0 0 0
44 22 1 0 113.14217237974094 101.58064734879848 99.50011483286849 0 0 0
80 40 1 0 113.50899738282787 100.49732849336732 100.14359739270334 -1 -1 2
135 68 1 0 113.53497982171342 101.49782977036945 100.67812251285017 -1 1 -1
37 19 1 0 119.39433828925601 100.80526848504279 100.6573960993676 -1 0 -1
148 74 1 0 113.54109818105195 100.10230574362059 99.05415193882736 1 1 1
147 74 1 0 114.11193552060081 101.16149190110218 99.3870407535761 1 1 1
186 106 2 0 113.98661285668334 102.18577601005792 100.01641545823175 0 -1 2
42 21 1 0 114.45537097719483 100.91270840398839 100.37692258747325 0 2 -1
79 40 1 0 114.50635643527994 100.16579147605759 99.47896991162665 -1 -1 2
125 63 1 0 119.47741006713242 102.47335132041985 99.6854541184725 -2 1 0
167 87 2 0 115.22119133919779 101.0860059674557 99.67376881874839 1 0 1
50 25 1 0 115.00824660844197 102.54472393468211 99.84680943034978 -2 -1 0
76 38 1 0 115.30501902064594 100.26578998729967 100.33255773529143 -1 1 -1
46 23 1 0 115.3393795880921 101.76640729718821 100.61886386079426 -3 0 -1
24 12 1 0 115.60906820262883 100.21386745260617 99.18794515276998 -1 1 0
144 72 1 0 115.82039785249728 102.77357521994361 100.43991750172725 0 -2 1
36 18 1 0 115.90813548254926 102.30345799150267 99.26446718911907 -3 1 1
119 60 1 0 116.38038543513946 100.76282018234126 99.76249970204992 -1 0 1
45 23 1 0 116.08514994287893 100.82266946225975 100.7549144993371 -3 0 -1
127 64 1 0 116.38176718277754 101.89626002643688 100.6971865628284 0 0 -1
120 60 1 0 116.91208835396134 100.14952241011561 100.71298557080503 -1 0 1
134 67 1 0 116.82479581512493 101.7726209233567 99.74970707441958 -1 -1 1
105 53 1 0 117.3783431715506 100.89137204079658 100.12368494813715 -2 2 2
83 42 1 0 117.6883992430196 102.50571539093055 99.62003965394891 0 -1 -2
166 86 2 0 117.72463090412512 101.53563666952051 99.2111614825394 0 -2 -1
183 103 2 0 117.89363204309255 101.7903612221987 100.36858807668797 -2 -3 -2
123 62 1 0 117.84499395480103 100.34424068983996 99.11123421863428 -1 0 0
38 19 1 0 118.47052397681932 100.96076227108965 99.91421109949631 -1 0 -1
193 113 2 0 119.46951708905415 101.2638433405342 99.63081335849681 -2 0 -1
100 50 1 0 119.28034932479056 102.78620359194545 100.952519887726 -1 0 0
124 62 1 0 119.02645913373951 100.15077007512885 99.32309515290946 -2 1 0
126 63 1 0 118.93043682337844 101.81226277104848 100.49775232593359 -2 1 0
97 49 1 0 118.62715850076603 101.93146193082053 99.41561511213077 -1 -1 -1
98 49 1 0 118.50978263523167 102.76636997317321 100.20658711777892 -1 -1 -1
143 72 1 0 114.69186669544575 102.73505078352562 100.92947248401333 0 -2 1
116 58 1 0 111.91005744123603 100.98063398629209 101.341108649659 1 -1 0
17 9 1 0 112.12260962907143 101.92685724108787 102.26205895135314 0 -1 0
15 8 1 0 112.74817495024806 101.72994035247073 101.33787361917507 -1 -1 0
162 82 2 0 112.71158268567166 100.87116060335251 102.19990500514037 0 -1 -2
34 17 1 0 112.59931346648933 102.83728174752913 101.29885513039744 0 0 -1
115 58 1 0 113.01880823002969 100.6192497980672 101.1894382958901 1 -1 0
182 102 2 0 113.18667468186341 102.42384968450419 102.28697701308802 0 2 1
3 2 1 0 113.64156462759918 100.21750912929562 102.59615061674752 0 -1 1
136 68 1 0 113.58468170684672 101.39463360474919 101.8551943803157 -1 1 -1
16 8 1 0 113.62565593001656 102.51649957834732 101.05865280223254 -1 -1 0
13 7 1 0 113.21874884881335 101.51065815211096 102.92223382766787 -1 0 -1
189 109 2 0 114.06410983476387 100.58153869007478 101.24839381060828 -2 -1 2
164 84 2 0 114.2971627840063 102.29933804007194 102.06238816564688 -1 -1 0
195 115 2 0 114.48104101397762 100.95274007915864 102.20277784598235 -2 0 2
25 13 1 0 114.46975046430735 101.67280247114695 101.21913706214424 -1 -1 -1
28 14 1 0 114.96603597623387 101.66615171943995 102.7854228727775 -2 0 0
41 21 1 0 115.18273670132075 100.56910411136356 101.35282218565813 0 2 -1
26 13 1 0 115.4757502555288 101.48112290989783 101.83840108268612 -1 -1 -1
27 14 1 0 115.4245507098776 100.49458823394984 102.47148723440847 -2 0 0
137 69 1 0 115.73772492371702 102.35338997221365 102.48501292600992 -1 0 -1
94 47 1 0 115.60522712309815 102.47220382496738 101.4423604029006 0 -1 1
65 33 1 0 116.0730567314969 101.32651818568576 102.7493127738163 -2 -2 -1
20 10 1 0 116.2740950858805 100.7632146785897 101.77493604340297 -2 0 -1
111 56 1 0 118.27077725820178 101.06403108107399 101.06349918803532 -2 0 -1
174 94 2 0 116.51194838665984 101.9226850214849 101.81579635934685 -1 1 -1
140 70 1 0 117.10583352090111 101.1664259806928 102.40812315160505 -1 -2 -2
153 77 1 0 116.57068528319277 102.87614258836379 101.14373933046465 0 0 -4
112 56 1 0 117.08717041196365 101.17124907456423 101.13241960495426 -1 -1 -1
130 65 1 0 117.50085264260326 102.21973690478157 102.27053702130985 0 -1 -1
128 64 1 0 117.42212079238772 102.22228407978173 101.20965908511224 1 -1 -1
180 100 2 0 118.30878216434633 101.32775308978087 102.36324623322366 0 1 -1
181 101 2 0 118.35354629158644 102.76916569233164 102.57975762668397 0 0 -1
175 95 2 0 118.52023902748371 102.12977878805592 101.57681245339552 2 -1 1

Velocities

73 -0.03555602339227384 0.1842623171078272 0.22806909470612144
155 -0.3576542172796662 0.3723402711199984 -0.3819914475805281
114 -0.1030134229132709 -0.13783818647345178 0.16205122909903874
176 0.17651510235117152 0.23292349650219046 0.10242911285443577
89 -0.10176108638231493 0.40796392996728487 -0.09954627734491299
104 -0.051605989154041486 -0.18042317781192002 0.1587819924850211
82 0.1402973214807889 0.170298968515483 -0.1469002442133794
21 -0.2908187397133858 0.3755917693403172 -0.45549192085215034
200 0.010005211070124148 0.23824436649643835 0.31983214414155653
90 0.5350899545151916 -0.02041441203993854 0.31448129531863317
192 -0.02720402782854543 -0.11886945853748752 0.12550351369899315
173 0.06803990595370792 0.1465354060206412 -0.08803570219991409
199 0.1266915182879278 -0.22942469383617584 0.4731475969426009
141 -0.03823134597240753 0.09499915665495863 0.14807750369225112
142 0.2171841727770537 -0.2255426603596257 0.4789688391228649
47 -0.5309451714291469 -0.11508256124221508 0.2195393706918727
190 -0.454594295641594 0.22327345863691325 0.4178322992461238
152 0.17620330283805033 0.1641841005915389 0.46006530881736235
177 0.13145747339403527 0.21436147520345494 -0.061867852597717814
48 -0.011771225066205739 -0.3337490560806389 -0.23198850236165944
91 -0.42963417927916875 -0.19462369842554308 -0.1032382869996303
39 0.08633816610692631 -0.15787724084284097 0.26398848376914374
92 0.08203637675813152 0.1716817748297773 -0.4692387741674752
78 0.03538384823885678 -0.016384598223806744 -0.05999179611337382
81 0.1804072965734304 -0.38739186359473843 0.16970798949064633
132 -0.006854826122258713 -0.0685476618485249 -0.03032778103284402
149 -0.08867500063677053 -0.05825894645497292 0.25832237639011757
88 0.2652074921715863 0.12630497939245194 0.06260599164749614
74 -0.06236766905380478 0.5168931897190401 0.09159105434647163
150 -0.24301280909934156 0.03116830177839166 0.2590309841572818
87 -0.08264098592832565 0.009801357169403831 -0.2647422751695222
179 -0.0936050640735438 0.42552010845150356 0.4659933380937977
107 -0.09939524295823043 -0.18302032871664217 0.308641876205294
69 0.3920166222193305 -0.5258058958092303 0.2095649326259431
163 -0.07414973793215643 0.005187865485321363 -0.024627496462776153
185 0.04268665043932878 0.11234469167901184 0.2717358016850021
196 -0.08986730984273557 0.14391028431731417 0.008754172990271916
49 0.19151207200730305 0.3027555491992413 -0.741335667556235
62 0.015966282232806946 -0.08104306780515645 -0.384580483227037
108 0.04372147884082451 0.4596160686505384 -0.007700758997775886
23 0.40496225141861814 0.31502970939121633 -0.025627876348339122
54 -0.2628834263224343 -0.30727447197600843 -0.05147445278337913
9 -0.18649854191833173 -0.03768486596507497 -0.3091033464718538
53 0.2886369214829612 -0.38482697141108585 -0.23812504586074482
161 0.017896007638841024 -0.2904169428759307 -0.26560494740502477
72 -0.24712020799278597 -0.3635080344062834 0.139525015490385
71 0.18503114444541321 -0.18195339889199202 -0.06644260162561451
109 -0.34774138626680284 -0.320903235386275 -0.14219221123949796
187 0.1747224645759296 -0.11058984195987147 -0.04682462182350433
117 0.46302623020047456 0.14042986693917525 0.3448291518818525
10 0.2214237803384182 0.16927496472130296 0.15624976024545695
118 0.24862661420320617 -0.5098117562826008 0.1330650098190112
106 0.18618951992097063 -0.26195136995753854 0.27603663118778565
57 -0.1564823169617801 0.12946141519010687 0.6283596842368571
58 0.22773828584295755 -0.06444881468467593 -0.21426223099844183
110 0.3076824295594441 -0.07066472353400864 0.5570440668777252
188 0.08175474345326177 0.12385969155032378 0.1452976417942138
60 0.30650495226346575 0.5100217727485498 0.16304540117855676
146 -0.343525456872511 0.7417881760678028 0.04786267642450198
85 -0.36554609966404367 -0.521314010277604 -0.3206830796630958
5 -0.009228230240908342 -0.19418891442604638 -0.4592535539175071
22 0.2542921201266044 0.12162406989269642 -0.3018389845318291
184 -0.2989969032481895 -0.5963072745289905 -0.03174710394373012
30 -0.036136779736054725 0.21350941678102012 -0.3857605149752783
86 -0.03431146929056735 0.6093168632978647 -0.7345667024818909
145 0.734820621586448 0.817184297523738 0.21178857277975888
64 0.27819406465795177 0.10441937287622327 0.26033280413174714
33 0.25297045815025554 0.7320289245014018 -0.11956801312286945
102 -0.5633421841201137 0.2840725319213085 -0.6451856201329621
101 -0.10352141458010158 -0.5304770165140759 0.37386921299398573
1 -0.15705992108877423 0.16318797818709396 -0.09394053168365414
170 0.45996927492206247 -0.6518466255158278 0.11436858227082364
4 0.16569970740444664 0.09002226479094741 -0.4845405216024516
29 -0.12626564343810645 -0.7813585661097815 -0.24824650989197333
93 -0.37501893230891514 0.002559291557195226 0.2724308634232338
61 -0.12948364503143125 0.30155870436993654 0.42416174692543435
63 -0.05487851179425994 0.5023396261140296 0.40730089839656497
171 0.26219270558240454 -0.193367914839146 -0.25254444528498415
138 -0.6509196237324407 0.23692910522849356 0.5568672316503205
197 0.034201302692748944 0.022148017827918018 0.035019342064142325
157 -0.37474249276967 0.025339323582756014 0.23158628921521593
75 -0.19129453175737784 -0.0022746176606378786 0.0897060691903619
55 0.6426143535211666 0.2009747762913892 0.19273283091972568
19 -0.49573605804244963 -0.12465662905107402 -0.3896710709854324
103 -0.7446020759321701 0.0004513360243450237 -0.5492092326096107
129 0.4632461838868657 0.49770720172025296 0.17533566521334062
40 0.4357636590375329 0.00011142926633941738 -0.21445233917713374
56 -0.07666252436637891 0.1943325686635051 0.07223383563429193
154 -0.3252494742817252 0.524178696053983 -0.319790530207951
191 0.4061673802897602 -0.29607214268513826 0.10799749205046381
70 0.27584586804719036 0.02998009816229319 -0.14828711889569884
18 -0.22755196908891803 0.1725185276983672 -0.6050215638745748
14 0.060441443244533606 0.4919340583429166 -0.4190444849873743
168 0.01097449390129138 0.1663758078230684 0.07648279209389039
172 -0.20840415779241386 0.10013874133112202 -0.430437899002294
32 -0.044215383145447776 0.44514892432412234 -0.7488670575229476
95 -0.11783123510711412 -0.344847635655699 0.2473567418820978
113 -0.5855597990379231 -0.15839276100851143 0.0005977668215488468
31 0.07203312240985191 -0.023692572020923838 0.5936890228662071
165 0.0831770807932695 -0.2734163435118494 -0.13051300736293225
96 -0.05355638502499735 -0.0057391806959184765 0.16355379697087646
2 0.07801625595384366 0.02427383420162466 -0.11008005394677943
67 -0.5011548245627842 -0.32621135299339704 0.5229778594819757
8 -0.04702682731201326 -0.33243091585280327 0.07270541313201592
66 -0.11477923105440699 -0.07778643928807008 -0.18205751665852388
198 -0.09578700760962501 -0.28881699594803106 -0.11701310108554472
59 -0.13125187687704293 0.31713141706487186 0.09035374259697333
7 -0.01935809969659481 0.29483894654873716 -0.03720600218682683
35 -0.4702595530790991 -0.051736466092549664 0.06496569228240884
151 -0.5366874578020282 0.12029538160649922 0.10181773672967503
169 0.09521202716935483 0.022265901749799213 -0.2821738374834627
133 0.13786620772166508 0.9810819757542394 0.5896769854684535
52 -0.28514858566603074 0.05732735349649018 0.2734932326743913
77 0.6080293779175407 -0.3930101856970219 -0.1950646553372118
11 0.2642429871800287 -0.09937645035075035 -0.06639041165915013
51 0.2884077773426795 -0.34948085811420004 -0.24191183406278421
12 0.3765157681147943 -0.1785538858942952 0.3331350177150375
84 -0.31172283223087777 -0.536051597082348 0.0385154961588918
122 0.25898513248524996 -0.7945306378395837 -0.019039295689914186
160 0.08718715998689727 0.07020682463101197 -0.14093050470183646
159 0.2529004111158554 -0.06752542657098319 0.005038332225897354
121 0.22724710040230414 -0.29871574954280844 0.07698574552060339
156 0.7377126445970322 -0.3462751082490067 0.020283387033894935
194 -0.06002055948622126 -0.44278448358942835 -0.4056004736317511
68 -0.30774327426735687 -0.869236805054352 -0.1275650470294764
43 -0.29938537065577964 -0.032705182562741686 -0.023662591363834418
139 -0.7303889770378335 0.31333776627747445 -0.28309168670951823
158 0.2471977546645074 0.029336173069147646 -0.2617558035520768
178 -0.2161481958463278 0.21513764357888893 -0.07596530799038846
131 0.0005615272180607016 -0.07687792308112312 0.36961655413642996
6 -0.05530287874632649 -0.0169923243185127 0.30255800335558886
99 0.2636248371963026 -0.029178216661894577 0.4821914638499792
44 0.15817963882103275 -0.008891478318814271 -0.401371145441464
80 0.27096188043462066 -0.13371867558355716 -0.007610520206029663
135 0.31697969679907173 0.33729164406254364 0.3169181467583861
37 -0.0711940498417218 0.03768930914865649 -0.12239437080510214
148 0.12300286291331614 0.38428885181382566 -0.2055241119569328
147 -0.18160510361845283 0.11612528343436768 0.19660167523242542
186 -0.060322700698773095 0.38086635551386505 -0.41416906677321375
42 -0.04819222760372748 -0.3712470769877362 -0.11357927158477439
79 -0.15342106090045948 -0.3436803035690794 0.14788233650917018
125 0.022860909230776015 0.11474169650521383 0.3294172552589986
167 -0.05986255432278467 -0.5401427002290148 0.15864972906554184
50 -0.34544075520255235 0.2939704289573894 0.016612752178749798
76 0.3072298899711927 0.030401735085489934 0.10056211678073955
46 0.10485943088758681 0.02693848633562898 0.015155067198578523
24 -2.9096068459368763e-06 -0.010434347624940648 -0.14733457238198105
144 -0.5697717571039268 -0.007377756343187018 0.24620087114780503
36 0.43830751724474837 -0.05335977765557316 0.06646310913984445
119 -0.45729612262945524 0.2900476617021821 0.37784807239428686
45 0.13899385380190948 -0.15140023728361413 -0.2514560255683696
127 -0.3673677034565398 0.5000188435744567 0.11515468133822815
120 -0.9914372527924036 -0.4105799793537195 0.08761514404278038
134 0.26690069057917126 -0.3587793135949204 0.06418639621843875
105 -0.33908695870564676 0.1285676716792604 -0.26383866109991283
83 0.9943563159359765 -0.24273011581755358 -0.20450362931578517
166 -0.20366091756271204 0.03941616222099642 -0.08657837681887341
183 0.03611913043373984 -0.2766436800891113 -0.27477068385716713
123 -0.010546765561444545 -0.32293086903720214 -0.47177035096072145
38 -0.3426695860580265 -0.1627733487839305 0.1587008778863794
193 -0.1322581054178247 -0.20760767169825778 0.15387528965761957
100 0.16142544768086914 0.3807532206227428 -0.5193194512355805
124 0.15435326668466318 0.2960055152971406 0.05609771407340295
126 -0.4109596903689155 -0.1926191254000956 -0.08836378192241733
97 -0.15497036183250446 0.35398351024312213 -0.9559113491005502
98 0.051279408299886226 -0.14669022377011237 0.14953464292120397
143 0.0679761566635637 -0.05638827919118825 0.2273749387143439
116 0.42717527104318587 -0.3492844929425636 -0.2628482559472245
17 0.33760836244933207 0.6344903396727053 0.14635938081214708
15 0.5121722009462321 0.055229585453452586 -0.3561898967308092
162 -0.04663611308599995 0.1890229008018353 0.34648608561472405
34 0.6104138909757097 0.057166294508901795 -0.28412740951354626
115 0.7008795078817838 -0.692463498894795 -0.09487144349952066
182 0.11276298718578603 -0.018849781888222394 0.3385029271607924
3 0.2488986289217846 0.19092823962655964 -0.17139544993126427
136 0.21570448285720906 0.1050387039116703 0.25563488358485387
16 0.39419454424141565 -0.25990698956167285 -0.17929014816083308
13 -0.47861047379326016 0.0074269958817158935 0.7091308191012315
189 -0.1798903886496133 0.11387190436469534 0.11086411780676834
164 -0.1177508653271702 0.039902374585695406 -0.2965651024212213
195 0.2566573816032533 -0.008401483109722739 -0.07877456015050312
25 0.09020898594436498 0.16398435577842285 -0.010950772182456135
28 -0.6348324877558095 0.21971696766947524 -0.4085539435865243
41 0.08445539416421928 -0.04680798410898263 1.1479112363806965
26 0.43188511390946915 -0.08769331853413144 0.03748434882410588
27 -0.1583272208245973 -0.4784704899045532 0.20855741188134524
137 0.3967309462793313 -0.20338555623533588 0.4044974276817528
94 -0.43346390468675244 0.2989337587638309 0.2481882881800606
65 0.13517248502381254 0.07906576483804559 -0.294365743146497
20 -0.16424166367940288 -0.17821821028350598 0.1078059441976202
111 -0.10012699418803903 -0.06523955598558191 -0.5483432868779176
174 0.07667504774835689 -0.10437476178877106 -0.160707374155192
140 0.1190938043363857 0.07488850261755041 0.04366270456080512
153 0.12593349025249373 -0.07933331935355284 -0.4375064352484486
112 0.010600155454961036 0.2508586090557909 -0.29060150682273633
130 -0.12829567305609482 0.029969444301527117 -0.1782937993048289
128 -0.5178466789651901 0.12794986981235582 -0.2811697803356792
180 -0.005236688847862209 0.22324382766343925 -0.11078705977679296
181 -0.16607611612562945 0.08978714899594838 0.40836541927782405
175 -0.26912381049387446 -0.00876832634233639 0.1298692568450956

Bonds

1 1 73 74
2 1 155 156
3 2 176 73
4 2 176 155
5 2 176 145
6 2 176 102
7 1 89 90
8 1 21 22
9 2 200 108
10 2 200 141
11 2 200 104
12 2 200 114
13 2 192 66
14 2 192 113
15 2 192 142
16 2 192 47
17 2 173 49
18 2 173 53
19 2 173 81
20 2 173 90
21 2 199 35
22 2 199 117
23 2 199 152
24 1 141 142
25 1 47 48
26 2 190 68
27 2 190 138
28 2 190 71
29 2 190 82
30 2 177 40
31 2 177 91
32 2 177 151
33 2 177 137
34 1 91 92
35 1 39 40
36 1 81 82
37 1 149 150
38 1 87 88
39 2 179 132
40 2 179 148
41 2 179 88
42 2 179 107
43 1 107 108
44 1 69 70
45 2 163 23
46 2 163 79
47 2 163 89
48 2 185 42
49 2 185 69
50 2 185 76
51 2 185 101
52 2 196 143
53 2 196 50
54 2 196 150
55 1 49 50
56 1 23 24
57 1 9 10
58 1 53 54
59 2 161 10
60 2 161 24
61 2 161 45
62 2 161 60
63 1 71 72
64 1 109 110
65 2 187 9
66 2 187 56
67 2 187 75
68 2 187 120
69 1 117 118
70 1 57 58
71 2 188 58
72 2 188 92
73 2 188 106
74 2 188 109
75 1 85 86
76 1 5 6
77 2 184 30
78 2 184 70
79 1 145 146
80 1 33 34
81 1 101 102
82 1 1 2
83 2 170 4
84 2 170 27
85 2 170 64
86 2 170 86
87 1 29 30
88 1 93 94
89 1 61 62
90 1 63 64
91 2 171 55
92 2 171 63
93 2 171 103
94 2 171 157
95 2 197 61
96 2 197 72
97 2 197 94
98 2 197 144
99 1 75 76
100 1 55 56
101 1 19 20
102 1 103 104
103 1 129 130
104 2 168 13
105 2 168 18
106 2 168 31
107 2 168 85
108 2 172 14
109 2 172 21
110 2 172 32
111 1 95 96
112 1 113 114
113 1 31 32
114 2 165 2
115 2 165 43
116 2 165 96
117 1 67 68
118 2 198 36
119 2 198 52
120 2 198 139
121 2 198 7
122 1 59 60
123 1 7 8
124 1 35 36
125 1 151 152
126 2 169 19
127 2 169 51
128 2 169 59
129 2 169 77
130 1 133 134
131 1 77 78
132 1 11 12
133 1 51 52
134 1 159 160
135 1 121 122
136 2 194 39
137 2 194 83
138 2 194 98
139 2 194 125
140 1 43 44
141 1 139 140
142 2 178 6
143 2 178 115
144 2 178 131
145 2 178 158
146 1 131 132
147 1 135 136
148 1 37 38
149 1 147 148
150 2 186 74
151 2 186 99
152 2 186 147
153 1 79 80
154 1 125 126
155 2 167 8
156 2 167 46
157 2 167 67
158 2 167 119
159 1 119 120
160 1 45 46
161 1 127 128
162 1 105 106
163 1 83 84
164 2 166 38
165 2 166 105
166 2 166 123
167 2 183 97
168 2 183 112
169 1 123 124
170 2 193 121