LAMMPS (23 Jun 2022)
OMP_NUM_THREADS environment is not set. Defaulting to 1 thread. (src/comm.cpp:98)
  using 1 OpenMP thread(s) per MPI task
Reading data file ...
  orthogonal box = (96.921911 96.921911 96.921911) to (103.07809 103.07809 103.07809)
  2 by 2 by 3 MPI processor grid
  reading atoms ...
  200 atoms
  scanning bonds ...
  4 = max bonds/atom
  reading bonds ...
  225 bonds
Finding 1-2 1-3 1-4 neighbors ...
  special bond factors lj:    0        0        0       
  special bond factors coul:  0        0        0       
     4 = max # of 1-2 neighbors
     4 = max # of 1-3 neighbors
    10 = max # of 1-4 neighbors
    12 = max # of special neighbors
  special bonds CPU = 0.001 seconds
  read_data CPU = 0.007 seconds
Finding 1-2 1-3 1-4 neighbors ...
  special bond factors lj:    0        1        1       
  special bond factors coul:  0        0        0       
     4 = max # of 1-2 neighbors
     4 = max # of 1-3 neighbors
    10 = max # of 1-4 neighbors
    12 = max # of special neighbors
  special bonds CPU = 0.000 seconds
Generated 0 of 1 mixed pair_coeff terms from geometric mixing rule
Neighbor list info ...
  update every 1 steps, delay 0 steps, check yes
  max neighbors/atom: 2000, page size: 100000
  master list distance cutoff = 5.5
  ghost atom cutoff = 5.5
  binsize = 2.75, bins = 3 3 3
  1 neighbor lists, perpetual/occasional/extra = 1 0 0
  (1) pair lj/cut, perpetual
      attributes: half, newton on
      pair build: half/bin/newton
      stencil: half/bin/3d
      bin: standard
WARNING: Proc sub-domain size < neighbor skin, could lead to lost atoms (src/domain.cpp:970)
Setting up Verlet run ...
  Unit style    : lj
  Current step  : 0
  Time step     : 0.002
WARNING: Inconsistent image flags (src/domain.cpp:819)
Per MPI rank memory allocation (min/avg/max) = 8.433 | 8.435 | 8.438 Mbytes
   Step          Temp         Density         PotEng        Enthalpy        Press           Pxx            Pyy            Pzz            Pxy            Pxz            Pyz             Lx             Ly             Lz             Xy             Yz             Xz          Density    
         0   1.5            0.94295118    -3.9882628      0.9340355      2.3004137      2.1844026      2.988386       1.7284526     -0.12444588    -0.32276774     0.079725312    6.1561778      6.1561778      6.1561778      0              0              0              0.94295118   
      1000   1.4722788      0.80404343    -2.9099417      0.39140981     0.80694924     0.54650682     1.919267      -0.044926096    0.18943305    -0.061399843    0.15146822     6.4920381      6.4920381      6.4920381      0              0              0              0.80404343   
      2000   1.4457152      0.78337274    -2.7803366     -0.64800091    -0.018084649   -0.1888796      0.11753812     0.017087532   -0.43492494    -0.31803997     0.34088455     6.5486444      6.5486444      6.5486444      0              0              0              0.78337274   
      3000   1.6100523      0.79948231    -2.7558156      0.15914572     0.37209234     0.2002294      0.006203439    0.90984419     0.62035202     0.11424733    -0.98427817     6.5043606      6.5043606      6.5043606      0              0              0              0.79948231   
      4000   1.3516846      0.80863995    -2.853862       0.35504484     0.87591701     0.91787192     1.0506402      0.65923892     0.5931504     -0.48010698     0.18207442     6.4797139      6.4797139      6.4797139      0              0              0              0.80863995   
      5000   1.4308608      0.83300648    -2.8648003      2.3921752      2.3637814      2.1579725      2.6524316      2.2809402      0.58365612     0.014926797    0.15950725     6.4159076      6.4159076      6.4159076      0              0              0              0.83300648   
      6000   1.6005525      0.79438501    -2.7987722      0.28227052     0.49989788     0.35788616     1.0172807      0.12452676    -0.11076749    -0.50866209    -0.58916198     6.518243       6.518243       6.518243       0              0              0              0.79438501   
      7000   1.5005081      0.81952193    -3.0689346      1.3272158      1.6067413      1.6568788      0.95290822     2.2104368     -0.13420243     0.17576978     0.15614046     6.4509058      6.4509058      6.4509058      0              0              0              0.81952193   
      8000   1.313948       0.79819494    -2.857415      -0.2174182      0.49265272     0.7907592      0.28126435     0.40593462    -0.2771865      0.046983706    0.02669705     6.5078555      6.5078555      6.5078555      0              0              0              0.79819494   
      9000   1.4283797      0.8098543     -2.8507357      0.59933054     0.97050696     1.4793837     -0.012455565    1.4445928      0.59883981     1.0581983      0.25082128     6.4764735      6.4764735      6.4764735      0              0              0              0.8098543    
     10000   1.5155131      0.82501337    -2.9914336      2.0765532      2.1045967      1.8338493      1.8612933      2.6186474     -0.61781022    -0.62321948     0.42046111     6.4365611      6.4365611      6.4365611      0              0              0              0.82501337   
     11000   1.3825884      0.81898507    -2.9943444      1.3244656      1.6791404      1.658517       1.6347131      1.744191      -0.039984799   -0.59392452    -0.22144635     6.452315       6.452315       6.452315       0              0              0              0.81898507   
     12000   1.3691809      0.81533302    -3.1649317     -1.0517053      0.05168017    -0.29690809     0.1814368      0.2705118     -0.18836767     0.31959171    -0.21739693     6.4619345      6.4619345      6.4619345      0              0              0              0.81533302   
     13000   1.5345346      0.85747085    -3.3024276      1.0784878      1.6296799      1.8473846      1.701031       1.340624      -0.61388048    -0.49130433     0.41532967     6.3543008      6.3543008      6.3543008      0              0              0              0.85747085   
     14000   1.4213811      0.7887733     -3.026733      -0.73674617     0.12087985     0.28236217     0.73116143    -0.65088404    -0.0066590374   0.1472001     -0.36873605     6.5336644      6.5336644      6.5336644      0              0              0              0.7887733    
     15000   1.249932       0.8121491     -2.965716      -0.78226644     0.23473032    -0.090435068    0.38123443     0.4133916     -0.34584892     0.0030266993   0.91009864     6.4703678      6.4703678      6.4703678      0              0              0              0.8121491    
     16000   1.6637282      0.83228974    -3.1107556      1.2518144      1.422047       0.95983606     2.0338116      1.2724932      0.069681698   -0.45634567     0.17954526     6.4177488      6.4177488      6.4177488      0              0              0              0.83228974   
     17000   1.283808       0.80231054    -2.9251424     -0.050888492    0.69886384     0.39642037     1.2684945      0.43167669     1.118498      -0.22112676     0.26796081     6.4967087      6.4967087      6.4967087      0              0              0              0.80231054   
     18000   1.3632844      0.83019373    -3.2676321     -0.12278346     0.83785165     0.3481153      1.2172492      0.94819048    -0.20519682    -0.40583322     0.68037458     6.4231453      6.4231453      6.4231453      0              0              0              0.83019373   
     19000   1.2829071      0.83223037    -3.2781385      0.093424618    1.102194       0.33964314     1.3033671      1.6635719     -0.41628884     0.40289482    -0.4508129      6.4179014      6.4179014      6.4179014      0              0              0              0.83223037   
     20000   1.4156523      0.83813169    -3.3022676      0.36183068     1.1819464      0.73491557     1.9709259      0.83999786    -0.30847565    -0.059943729    0.56374053     6.402803       6.402803       6.402803       0              0              0              0.83813169   
     21000   1.2755694      0.81506092    -3.1881069      0.11667958     1.0380907      1.1842675      0.62458163     1.3054229     -0.49736505    -0.10120372    -0.43919906     6.4626535      6.4626535      6.4626535      0              0              0              0.81506092   
     22000   1.4381539      0.83009909    -3.2118808     -0.042387628    0.7720287      1.0888952      0.33269729     0.89449357    -0.98653872    -0.43043839     0.42322142     6.4233894      6.4233894      6.4233894      0              0              0              0.83009909   
     23000   1.2702735      0.81651575    -2.9791002      0.5580904      1.2183212      1.082023       1.84218        0.73076073     0.084801364    0.31345405    -0.75674673     6.4588129      6.4588129      6.4588129      0              0              0              0.81651575   
     24000   1.3351925      0.83930426    -3.411498      -0.09969235     1.0064257      0.89634173     1.496792       0.6261433      0.30851678    -0.58757718     0.62723913     6.3998199      6.3998199      6.3998199      0              0              0              0.83930426   
     25000   1.2385817      0.83817382    -3.1854293      0.035692399    1.0458417      1.7012267      0.38359299     1.0527054      0.11217366     0.026321042    0.010967329    6.4026957      6.4026957      6.4026957      0              0              0              0.83817382   
     26000   1.3168135      0.84230257    -3.1831411     -0.12678958     0.83541672     0.90350171     0.37101163     1.2317368     -0.11745347    -0.021212068   -0.062964931    6.3922171      6.3922171      6.3922171      0              0              0              0.84230257   
     27000   1.1501075      0.84745346    -3.3505329     -0.8454087      0.60753841     0.33031709     0.81673002     0.67556813     0.30180426    -0.12062931     0.62128939     6.37924        6.37924        6.37924        0              0              0              0.84745346   
     28000   1.1217581      0.85451654    -3.3697701      0.46682891     1.6798048      1.216479       2.1651023      1.6578329      0.69464608     0.37534572    -0.24195984     6.3616153      6.3616153      6.3616153      0              0              0              0.85451654   
     29000   1.2743778      0.84404282    -3.488415      -0.057629908    1.1730478      1.1227316      1.4898685      0.90654325    -0.46415254     0.68168389     0.038348426    6.3878209      6.3878209      6.3878209      0              0              0              0.84404282   
     30000   1.2905067      0.87330928    -3.3717593      0.21536854     1.318734       2.0172766      0.63334786     1.3055775     -0.49696757    -0.21428572     0.21905255     6.3156521      6.3156521      6.3156521      0              0              0              0.87330928   
     31000   1.1894762      0.81848216    -3.2761815     -1.0317337      0.34908597    -0.13896186     1.2798614     -0.093641609   -0.046223621    0.31988853     0.5774727      6.4536363      6.4536363      6.4536363      0              0              0              0.81848216   
     32000   1.1280844      0.86255747    -3.41142       -0.20241569     1.1960837      0.50803926     1.2906014      1.7896103      0.12141882     0.73087872    -0.21205557     6.3417855      6.3417855      6.3417855      0              0              0              0.86255747   
     33000   1.0892946      0.86053071    -3.6514797     -0.75101438     0.99719326     1.3538218      0.64476723     0.99299078    -0.90762963     0.051353072   -0.36260168     6.3467604      6.3467604      6.3467604      0              0              0              0.86053071   
     34000   1.1934579      0.8575209     -3.4804247     -0.4462197      0.97677015     0.24960394     0.47683998     2.2038665      0.28978009     0.82706495    -0.31710011     6.3541772      6.3541772      6.3541772      0              0              0              0.8575209    
     35000   1.2613332      0.86009043    -3.4820447     -0.21777273     1.0803769      1.7956997      0.79761946     0.6478116      0.29317877    -0.15940197    -0.23126951     6.3478432      6.3478432      6.3478432      0              0              0              0.86009043   
     36000   1.1590304      0.86178849    -3.607798      -0.2012998      1.3135579      1.48458        1.2962734      1.1598202      0.073312276    0.83880004    -0.51107297     6.3436712      6.3436712      6.3436712      0              0              0              0.86178849   
     37000   1.1176183      0.86420691    -3.5591463     -0.86564688     0.80564047     1.1010516      0.90380206     0.41206778    -0.41851629    -0.67990984    -0.27839854     6.3377482      6.3377482      6.3377482      0              0              0              0.86420691   
     38000   1.0354004      0.87875259    -3.7546097     -1.1246896      0.86643808     1.2791191      0.81121403     0.50898118     0.053404272   -0.52097967     0.30138235     6.3025847      6.3025847      6.3025847      0              0              0              0.87875259   
     39000   1.1195853      0.86810196    -3.5590651     -0.67928374     0.95396531     2.0011174      0.73830657     0.12247197     0.34278759     0.20763832     0.17389527     6.3282551      6.3282551      6.3282551      0              0              0              0.86810196   
     40000   1.1422959      0.84844848    -3.4185189     -0.62847727     0.83700604     1.0345335      0.71193979     0.76454479    -0.5014811     -0.30872502     0.54256322     6.3767453      6.3767453      6.3767453      0              0              0              0.84844848   
     41000   1.0258997      0.89510155    -3.6011377     -0.44222187     1.3245554      2.5030619      0.69690078     0.77370357     0.073790846    0.36171118    -0.24925105     6.2639766      6.2639766      6.2639766      0              0              0              0.89510155   
     42000   1.0853386      0.86380566    -3.4460409     -0.93788086     0.69755615     0.7342702      1.2022935      0.15610471    -0.032377857    0.49696068     0.086392316    6.3387294      6.3387294      6.3387294      0              0              0              0.86380566   
     43000   1.0442675      0.86647078    -3.5435615     -0.087893217    1.4943463      1.5264759      1.483334       1.4732289     -0.11685458     0.020279652   -0.31349125     6.3322238      6.3322238      6.3322238      0              0              0              0.86647078   
     44000   1.0595271      0.8461625     -3.5719175     -0.94331768     0.80558952     1.0926801      0.41224964     0.91183877     0.34547506    -0.10377857    -0.65586204     6.3824826      6.3824826      6.3824826      0              0              0              0.8461625    
     45000   1.1994605      0.9071542     -3.7864951      0.078604548    1.7111442      1.7817119      1.9933535      1.3583671      0.23922339    -0.30815127    -0.040892346    6.2361113      6.2361113      6.2361113      0              0              0              0.9071542    
     46000   1.0579869      0.84930756    -3.6988708     -1.1389545      0.75732818     0.96365916     0.90791133     0.40041405     0.2426871     -0.56683737     0.41471723     6.3745945      6.3745945      6.3745945      0              0              0              0.84930756   
     47000   0.98776204     0.89716388    -3.7917488     -1.4118657      0.73864987     0.15110367     0.67973515     1.3851108     -0.42597687    -0.37409786    -0.10861589     6.2591732      6.2591732      6.2591732      0              0              0              0.89716388   
     48000   1.0347247      0.87158506    -3.6063257     -1.3108773      0.59515138     0.23285299     0.7569345      0.79566665     0.20564348    -0.1773011     -0.18212031     6.3198141      6.3198141      6.3198141      0              0              0              0.87158506   
     49000   1.0112498      0.90443148    -3.6446216     -0.14215441     1.6388109      1.1567987      1.7779916      1.9816423     -0.21743329    -0.2941037      0.33562665     6.2423628      6.2423628      6.2423628      0              0              0              0.90443148   
     50000   0.95059458     0.8860147     -3.6859068     -1.5989136      0.53823849     1.3045766     -0.22285487     0.53299377     0.20258563     0.48636877     0.3404171      6.2853179      6.2853179      6.2853179      0              0              0              0.8860147    
     51000   0.95185056     0.9086549     -3.8862647     -1.2796756      0.97965563     1.0246061      1.2925512      0.62180965    -0.08363071    -0.51265466    -0.33983641     6.2326763      6.2326763      6.2326763      0              0              0              0.9086549    
     52000   0.92065626     0.89162221    -4.0132365     -1.7987435      0.68121032     0.19245145     0.6449148      1.2062647      0.26450339     0.071921583    0.085765735    6.2721139      6.2721139      6.2721139      0              0              0              0.89162221   
     53000   0.96117833     0.91772464    -4.0109729     -0.74459229     1.5282801      1.558756       1.4389182      1.5871661      0.42900828    -0.12311391     0.18357336     6.212076       6.212076       6.212076       0              0              0              0.91772464   
     54000   1.012639       0.89965671    -4.0514805     -1.4599116      0.88346714     1.5721125      0.84042391     0.23786501    -0.69842879     0.67471956    -0.11104913     6.2533867      6.2533867      6.2533867      0              0              0              0.89965671   
     55000   0.96522261     0.89882349    -3.9710905     -2.117778       0.33723678    -0.058503205    0.32686986     0.74334367    -0.13645818     0.061859685   -0.5477424      6.2553184      6.2553184      6.2553184      0              0              0              0.89882349   
     56000   0.95491335     0.8872513     -3.754802      -2.3033352      0.021179999    0.34380047    -0.15702463    -0.12323584     0.010409962    0.015383749    0.28478597     6.2823965      6.2823965      6.2823965      0              0              0              0.8872513    
     57000   0.9504246      0.89280529    -3.9623479     -1.7483337      0.64566506     1.485991      -0.41955186     0.87055605     0.08631026     0.18861881     0.50626989     6.2693422      6.2693422      6.2693422      0              0              0              0.89280529   
     58000   0.94142097     0.92393697    -4.2749949     -1.3982084      1.2361568      1.3060694      0.9327795      1.4696216     -0.51228558     0.52672742    -0.010516734    6.1981219      6.1981219      6.1981219      0              0              0              0.92393697   
     59000   0.9256171      0.88960837    -4.0019223     -2.1470042      0.3828831      0.87951735    -0.0074298775   0.27656183     0.1745699      0.42071185     0.34300406     6.2768431      6.2768431      6.2768431      0              0              0              0.88960837   
     60000   0.94406876     0.94565955    -4.2713129     -1.5706014      1.1104526      0.71076422     1.1639455      1.4566482     -0.50422399     0.7021915     -0.38087715     6.1502951      6.1502951      6.1502951      0              0              0              0.94565955   
     61000   0.89499707     0.92658547    -4.1385318     -0.50715253     1.9336964      2.0801951      1.7611945      1.9596995     -0.36908725    -0.13783095    -0.16298675     6.1922108      6.1922108      6.1922108      0              0              0              0.92658547   
     62000   0.78724444     0.92183017    -4.1716652     -2.882823       0.095434447   -0.12590453    -0.072773953    0.48498183    -0.00015067926 -0.01285634    -0.42198663     6.2028401      6.2028401      6.2028401      0              0              0              0.92183017   
     63000   0.89536503     0.91087519    -4.1904015     -2.6105797      0.20162591    -0.59117903     0.28742924     0.90862753     0.39361671    -0.1733432      0.58023829     6.227608       6.227608       6.227608       0              0              0              0.91087519   
     64000   0.96945849     0.9227582     -4.2905004     -1.7041911      0.9558034      0.90881724     0.65878482     1.2998081      0.33900724    -0.17134701     0.3305206      6.20076        6.20076        6.20076        0              0              0              0.9227582    
     65000   0.93161427     0.92971645    -4.1979061     -1.2251323      1.3373883      1.5647616      0.45470311     1.9927         0.4937476     -0.056311525   -0.1739375      6.1852519      6.1852519      6.1852519      0              0              0              0.92971645   
     66000   0.82298464     0.89532234    -4.1561602     -2.873024       0.04462908    -0.34568449    -0.44570506     0.92527679    -0.044551157   -0.23022155    -0.44188507     6.2634616      6.2634616      6.2634616      0              0              0              0.89532234   
     67000   0.75389399     0.94323652    -4.2533261     -1.5139383      1.3841576      0.84253572     1.9133445      1.3965926      0.22857507     0.19860578     0.50912521     6.155557       6.155557       6.155557       0              0              0              0.94323652   
     68000   0.83922669     0.92100027    -4.1687237     -1.6847696      1.0310248      0.46776919     1.0877702      1.5375351      0.2379263      0.1578747     -0.20656581     6.2047027      6.2047027      6.2047027      0              0              0              0.92100027   
     69000   0.81116138     0.93103326    -4.38147       -2.5439425      0.53057821     0.92884259     0.74733208    -0.08444005     0.13919719     0.46632704     0.21693746     6.1823344      6.1823344      6.1823344      0              0              0              0.93103326   
     70000   0.77588792     0.91108314    -4.1859077     -2.3148901      0.59055159     0.063959319    1.0964174      0.61127803     0.82407629    -0.20285876     0.56727023     6.2271342      6.2271342      6.2271342      0              0              0              0.91108314   
     71000   0.81784696     0.92223824    -4.27861       -2.3645713      0.58134719     0.32894139     0.50195615     0.91314405     0.15725848     0.56991491     0.90961457     6.2019251      6.2019251      6.2019251      0              0              0              0.92223824   
     72000   0.77123732     0.94249064    -4.447463      -2.0137182      1.0990067      1.2496414      1.1246151      0.92276375     0.51845068     0.28733515    -0.13172758     6.1571804      6.1571804      6.1571804      0              0              0              0.94249064   
     73000   0.79661467     0.9248245     -4.3753913     -2.3734666      0.68351031     0.060649227    0.66919889     1.3206828      0.3680297      0.045500956    0.15387093     6.1961385      6.1961385      6.1961385      0              0              0              0.9248245    
     74000   0.77368378     0.937208      -4.456545      -2.237186       0.90707764     1.601892       0.62461253     0.49472838    -0.016092537    0.49789999    -0.070976081    6.1687272      6.1687272      6.1687272      0              0              0              0.937208     
     75000   0.72932851     0.96650441    -4.5268205     -1.4912395      1.7107639      2.1515414      1.2607339      1.7200166      0.21100309     0.25366233    -0.18798479     6.1057584      6.1057584      6.1057584      0              0              0              0.96650441   
     76000   0.75042863     0.93399934    -4.2488308     -2.2209819      0.77083321     0.63207712     0.59997316     1.0804493      0.44715766     0.21872784     0.60531779     6.1757831      6.1757831      6.1757831      0              0              0              0.93399934   
     77000   0.72795371     0.93861478    -4.4795436     -3.3335369      0.050801076    0.38833399    -0.52846893     0.29253817    -0.16290996    -0.11546008    -0.073514934    6.1656438      6.1656438      6.1656438      0              0              0              0.93861478   
     78000   0.71520972     0.9410874     -4.4295779     -2.7345913      0.53687846     0.25096392     0.83676114     0.52291033    -0.028744751    0.73862793     0.24999576     6.1602392      6.1602392      6.1602392      0              0              0              0.9410874    
     79000   0.72557792     0.95730193    -4.5374286     -1.3850475      1.8009948      1.3883057      2.4429857      1.5716932      0.16434791    -0.084435176   -0.20799647     6.1252608      6.1252608      6.1252608      0              0              0              0.95730193   
     80000   0.71060194     0.96789949    -4.4886716     -1.0865315      2.0603647      2.0202212      1.8275274      2.3333454      0.33885451     0.41177828     0.17258893     6.1028235      6.1028235      6.1028235      0              0              0              0.96789949   
     81000   0.69972125     0.94107798    -4.5830508     -3.3694695      0.14479537     0.3963798      0.16642728    -0.12842096     0.013482417   -0.19494855    -0.052685449    6.1602597      6.1602597      6.1602597      0              0              0              0.94107798   
     82000   0.64159469     0.97416046    -4.7020995     -2.2582872      1.3162078      1.7735251      1.0418204      1.133278       0.71529889     0.73769463     0.14903345     6.089721       6.089721       6.089721       0              0              0              0.97416046   
     83000   0.65476895     0.9642315     -4.5648096     -1.7314666      1.6270095      1.8344699      1.2356594      1.8108991      0.47644804     0.31510467     0.29738645     6.1105522      6.1105522      6.1105522      0              0              0              0.9642315    
     84000   0.67917884     0.96970553    -4.7179149     -2.8938351      0.71441325     1.3833517      0.53969982     0.22018824     0.040321556    0.24953511     0.44457127     6.0990323      6.0990323      6.0990323      0              0              0              0.96970553   
     85000   0.65029953     0.95547354    -4.6136807     -2.476358       1.0134539      0.92636678     1.290629       0.82336602     0.28660428    -0.015229073    0.10647795     6.1291654      6.1291654      6.1291654      0              0              0              0.95547354   
     86000   0.62469757     0.98419766    -4.8032744     -2.3779473      1.3357942      1.2227774      1.7403655      1.0442398     -0.57360834     0.36161753     0.14588843     6.0689485      6.0689485      6.0689485      0              0              0              0.98419766   
     87000   0.62172604     0.96602827    -4.6601946     -2.4018414      1.1683911      0.69378662     0.45284822     2.3585385     -0.43993821     0.12315148     0.40567313     6.1067613      6.1067613      6.1067613      0              0              0              0.96602827   
     88000   0.57418829     0.97148655    -4.7709295     -2.6218473      1.1411489      1.3345393      0.72053242     1.3683749     -0.10170992    -0.49558188     0.26372406     6.0953029      6.0953029      6.0953029      0              0              0              0.97148655   
     89000   0.59768087     0.96443917    -4.7286853     -2.5460937      1.1315089      1.2608915      1.3442046      0.78943046    -0.1191716     -0.13735747     0.23964663     6.1101135      6.1101135      6.1101135      0              0              0              0.96443917   
     90000   0.66100014     0.97521785    -4.7411079     -2.0107153      1.5460305      1.7148235      1.4572912      1.465977      -0.76427938     0.11954472    -0.13456305     6.0875192      6.0875192      6.0875192      0              0              0              0.97521785   
     91000   0.64513625     0.97231655    -4.7094661     -1.9046419      1.6281514      1.1014681      1.6205893      2.1623968      0.038538323   -0.04609984    -0.078095694    6.0935681      6.0935681      6.0935681      0              0              0              0.97231655   
     92000   0.55827869     0.96033021    -4.7677022     -3.6155604      0.27841795     0.5468867      0.018728738    0.2696384      0.040694548    0.14689779     0.030157282    6.1188156      6.1188156      6.1188156      0              0              0              0.96033021   
     93000   0.6081837      0.96958801    -4.8357998     -3.21842        0.62553026     0.35548255     0.75858608     0.76252214     0.089935519   -0.24151491    -0.16058425     6.0992787      6.0992787      6.0992787      0              0              0              0.96958801   
     94000   0.52448935     0.98160278    -4.8720193     -3.3592861      0.65136735     0.70050254     0.78802794     0.46557157     0.13956827    -0.3005575      0.2015335      6.0742916      6.0742916      6.0742916      0              0              0              0.98160278   
     95000   0.51104242     0.97561077    -4.8657071     -3.5792971      0.46446096     0.41035221     0.14084904     0.84218163    -0.0034694234  -0.37988458    -0.58293497     6.0867019      6.0867019      6.0867019      0              0              0              0.97561077   
     96000   0.54606871     0.98447128    -5.0202339     -3.6546198      0.49277849     0.35783445     1.1696574     -0.049156393   -0.1201641     -0.059283867   -0.27692264     6.0683862      6.0683862      6.0683862      0              0              0              0.98447128   
     97000   0.5738052      0.98207263    -4.9485188     -2.9353216      1.0327769      0.9071823      1.3339505      0.857198       0.23259991    -0.30843688     0.27978179     6.0733227      6.0733227      6.0733227      0              0              0              0.98207263   
     98000   0.57255758     1.0010789     -5.0351698     -2.8767494      1.1866226      0.69854597     1.5677862      1.2935357      0.059918874   -0.18605071    -0.18958195     6.0346414      6.0346414      6.0346414      0              0              0              1.0010789    
     99000   0.55405679     0.98766195    -4.9722799     -2.9130796      1.1064243      1.0723735      1.1640907      1.0828087     -0.68911052    -0.23309852    -0.27875163     6.0618444      6.0618444      6.0618444      0              0              0              0.98766195   
    100000   0.49755776     0.98774087    -5.0375202     -3.8852352      0.36787061     0.80461277    -0.10034231     0.39934139    -0.11551555     0.25744249    -0.42989951     6.061683       6.061683       6.061683       0              0              0              0.98774087   
    101000   0.50913386     1.0002528     -5.0898367     -3.0836704      1.1332719      0.86296669     0.74168827     1.7951607     -0.45473392     0.14234019     0.040374923    6.036302       6.036302       6.036302       0              0              0              1.0002528    
    102000   0.52590682     0.98649975    -5.0085356     -3.6214535      0.5400334      1.4677015      0.1887147     -0.036316012   -0.03089584     0.25633922    -0.273404       6.064224       6.064224       6.064224       0              0              0              0.98649975   
    103000   0.46316034     1.0113624     -5.084567      -2.7563428      1.5050518      1.4600973      1.3110082      1.7440499     -0.15319866    -0.07886999    -0.39426321     6.0141183      6.0141183      6.0141183      0              0              0              1.0113624    
    104000   0.48341054     0.99448378    -5.0306056     -3.1058722      1.0878234      1.1103272      0.93121394     1.221929      -0.35950945     0.19921247    -0.081921207    6.0479519      6.0479519      6.0479519      0              0              0              0.99448378   
    105000   0.45464168     1.0031072     -5.1149486     -3.1468952      1.1759158      1.7831914      0.48665708     1.257899       0.18987635     0.29256757     0.11164992     6.0305711      6.0305711      6.0305711      0              0              0              1.0031072    
    106000   0.49074369     0.99307924    -5.05302       -3.1066581      1.0959324      1.7199109      0.53220063     1.0356855     -0.054597403   -0.23597812    -0.086808764    6.0508018      6.0508018      6.0508018      0              0              0              0.99307924   
    107000   0.40054323     1.0147033     -5.1559386     -3.1151429      1.3310923      1.8005758      1.1371933      1.0555078      0.19886372    -0.031394872   -0.17634519     6.0075104      6.0075104      6.0075104      0              0              0              1.0147033    
    108000   0.44549324     1.0020549     -5.1570798     -3.6830013      0.73712964     0.93475978     0.3354823      0.94114686    -0.13157644     0.2881637      0.15124943     6.0326814      6.0326814      6.0326814      0              0              0              1.0020549    
    109000   0.39711687     1.0168341     -5.2314122     -2.7736295      1.7240754      2.1560289      1.0713651      1.9448322      0.0042081088   0.06977903    -0.27764367     6.0033112      6.0033112      6.0033112      0              0              0              1.0168341    
    110000   0.42372719     1.0148403     -5.2146968     -3.1871822      1.2870958      2.0404012      0.026117174    1.7947692     -0.19417188    -0.11280047    -0.18573288     6.0072401      6.0072401      6.0072401      0              0              0              1.0148403    
    111000   0.39766889     1.0107119     -5.2454372     -3.7134102      0.86232676     0.72054505     0.58338251     1.2830527      0.011760469    0.015969745    0.01082676     6.0154081      6.0154081      6.0154081      0              0              0              1.0107119    
    112000   0.37287855     1.0122858     -5.2650815     -3.8889814      0.75422553     0.88569777     0.088920339    1.2880585     -0.22611699     0.37390184    -0.24306781     6.012289       6.012289       6.012289       0              0              0              1.0122858    
    113000   0.39443462     1.0144768     -5.2518909     -3.5030719      1.0699275      1.5102872      0.36065216     1.3388431     -0.1132877      0.6073708      0.073098847    6.0079576      6.0079576      6.0079576      0              0              0              1.0144768    
    114000   0.33104428     1.0273229     -5.2537128     -2.91492        1.7228291      2.204564       1.2539215      1.7100018      0.074575636    0.2166748     -0.34282024     5.9828104      5.9828104      5.9828104      0              0              0              1.0273229    
    115000   0.34915043     1.0044854     -5.2702082     -4.2992219      0.41081562     0.65641259    -0.2722569      0.84829118    -0.24863446     0.20431541    -0.3027505      6.0278117      6.0278117      6.0278117      0              0              0              1.0044854    
    116000   0.31266422     1.0156366     -5.3023709     -3.9850769      0.78540344     1.4631303      0.30076061     0.59231945     0.45585995    -0.16114433    -0.32333143     6.0056698      6.0056698      6.0056698      0              0              0              1.0156366    
    117000   0.33226243     1.0269671     -5.3426462     -3.2240108      1.5149946      2.1773034      1.0789222      1.2887581      0.12202676     0.26511339     0.025343532    5.9835013      5.9835013      5.9835013      0              0              0              1.0269671    
    118000   0.31771204     1.0154521     -5.2929518     -3.3518976      1.3541228      2.1428494      0.72587487     1.1936442      0.21849827    -0.21818257    -0.58333115     6.0060335      6.0060335      6.0060335      0              0              0              1.0154521    
    119000   0.32692587     1.0325429     -5.411551      -3.3290319      1.4967951      1.5639378      0.67236154     2.254086       0.079922257   -0.20086989    -0.20679855     5.9727113      5.9727113      5.9727113      0              0              0              1.0325429    
    120000   0.31549062     1.0099235     -5.3314787     -4.2626685      0.54897655     1.1482164     -0.21090139     0.7096146      0.0097318031   0.013455087   -0.38889076     6.016973       6.016973       6.016973       0              0              0              1.0099235    
    121000   0.28240916     1.0317683     -5.4137756     -3.5879759      1.3171967      1.7800505      0.51259674     1.6589428     -0.1342394      0.060603393   -0.15656598     5.9742056      5.9742056      5.9742056      0              0              0              1.0317683    
    122000   0.31289897     1.0291311     -5.4121548     -3.8059087      1.0658471      1.521479       0.56468932     1.1113729      0.21954445     0.10501341    -0.32508456     5.9793044      5.9793044      5.9793044      0              0              0              1.0291311    
    123000   0.25413037     1.0214797     -5.394442      -4.2762185      0.68618733     1.1345238     -0.2458143      1.1698525     -0.02032016     0.19741157    -0.39503063     5.9941966      5.9941966      5.9941966      0              0              0              1.0214797    
    124000   0.25413823     1.0298227     -5.4148259     -3.5893495      1.3539127      2.0726402      0.69425288     1.2948452     -0.16247241     0.25866532    -0.016672771    5.9779655      5.9779655      5.9779655      0              0              0              1.0298227    
    125000   0.23468016     1.0307874     -5.4816733     -4.195344       0.87717122     1.1978532      0.31482421     1.1188363      0.20376352     0.24951528    -0.49860695     5.9761         5.9761         5.9761         0              0              0              1.0307874    
    126000   0.24246329     1.0241671     -5.4428425     -4.0789046      0.93298031     1.2488805      0.23944823     1.3106122      0.037324018    0.36260906     0.041178213    5.9889491      5.9889491      5.9889491      0              0              0              1.0241671    
    127000   0.23739192     1.0397845     -5.4981871     -3.9636629      1.1156101      1.6324711      0.50026782     1.2140913      0.20152264     0.12595095    -0.40127932     5.9588133      5.9588133      5.9588133      0              0              0              1.0397845    
    128000   0.21969123     1.0338928     -5.5156069     -4.0663794      1.0539489      1.6644923      0.51109374     0.98626049     0.12528339     0.019942018   -0.33284997     5.9701107      5.9701107      5.9701107      0              0              0              1.0338928    
    129000   0.2084796      1.0251379     -5.5401674     -4.7948069      0.40465417     1.0154141     -0.44262661     0.64117503     0.16444693     0.056200779   -0.15194403     5.987058       5.987058       5.987058       0              0              0              1.0251379    
    130000   0.2107617      1.0400553     -5.5311992     -3.7610491      1.3762657      1.7651558      0.74013448     1.6235069      0.44411448     0.079399827   -0.55015325     5.9582961      5.9582961      5.9582961      0              0              0              1.0400553    
    131000   0.18663344     1.0427286     -5.5458419     -3.6844433      1.5004373      2.0584618      0.68371429     1.7591359      0.075729737    0.14464451    -0.31426539     5.9531998      5.9531998      5.9531998      0              0              0              1.0427286    
    132000   0.1972833      1.0318642     -5.5372123     -4.5310441      0.66763753     0.96648372     0.024245892    1.012183       0.067984384    0.49154264    -0.44033253     5.9740206      5.9740206      5.9740206      0              0              0              1.0318642    
    133000   0.15531557     1.0417906     -5.5640154     -4.1978397      1.0743393      1.5770159      0.38830635     1.2576955      0.045744067   -0.10385662    -0.018137023    5.954986       5.954986       5.954986       0              0              0              1.0417906    
    134000   0.16384305     1.0410356     -5.572322      -4.0637325      1.1962954      1.6088557      0.95732374     1.0227067     -0.23174417     0.39149842    -0.38396112     5.9564254      5.9564254      5.9564254      0              0              0              1.0410356    
    135000   0.14765434     1.0392266     -5.6047298     -4.1273471      1.1875608      1.7905727      0.54298741     1.2291223     -0.068304368    0.035469943   -0.35173577     5.9598794      5.9598794      5.9598794      0              0              0              1.0392266    
    136000   0.13333922     1.0438446     -5.6268663     -4.2547416      1.113228       1.7179479      0.48991348     1.1318227     -0.01893193    -0.024841028   -0.46124648     5.9510775      5.9510775      5.9510775      0              0              0              1.0438446    
    137000   0.13388408     1.0431423     -5.6264114     -4.1754074      1.18651        1.7413903      0.62173356     1.196406       0.18773516     0.229173      -0.62483327     5.9524127      5.9524127      5.9524127      0              0              0              1.0431423    
    138000   0.11392457     1.0429843     -5.652568      -4.5608016      0.8739582      1.412572       0.3039572      0.90534541     0.15562541     0.31606701    -0.19816536     5.9527133      5.9527133      5.9527133      0              0              0              1.0429843    
    139000   0.11503902     1.0481676     -5.6711114     -4.2861971      1.1560513      1.5431714      0.65227797     1.2727045     -0.037482002    0.059987021   -0.22188692     5.9428849      5.9428849      5.9428849      0              0              0              1.0481676    
    140000   0.099185155    1.0493223     -5.694949      -4.5410679      0.9595072      1.6259406      0.43769076     0.81489021    -0.15943651     0.11788384    -0.18583167     5.9407042      5.9407042      5.9407042      0              0              0              1.0493223    
Loop time of 17.2572 on 12 procs for 140000 steps with 200 atoms

Performance: 1401845.789 tau/day, 8112.533 timesteps/s
83.1% CPU use with 12 MPI tasks x 1 OpenMP threads

MPI task timing breakdown:
Section |  min time  |  avg time  |  max time  |%varavg| %total
---------------------------------------------------------------
Pair    | 3.09       | 3.6171     | 4.0157     |  14.8 | 20.96
Bond    | 0.064197   | 0.076317   | 0.084469   |   2.0 |  0.44
Neigh   | 0.017832   | 0.018165   | 0.018437   |   0.1 |  0.11
Comm    | 10.671     | 11.099     | 11.6       |   8.9 | 64.32
Output  | 0.017919   | 0.018035   | 0.019063   |   0.2 |  0.10
Modify  | 1.6323     | 1.6794     | 1.7199     |   2.3 |  9.73
Other   |            | 0.7491     |            |       |  4.34

Nlocal:        16.6667 ave          19 max          12 min
Histogram: 1 0 1 0 0 2 0 4 2 2
Nghost:        2295.25 ave        2315 max        2268 min
Histogram: 1 0 1 1 1 2 1 2 1 2
Neighs:        5218.08 ave        6305 max        3239 min
Histogram: 1 0 0 1 1 2 2 1 2 2

Total # of neighbors = 62617
Ave neighs/atom = 313.085
Ave special neighs/atom = 10.42
Neighbor list builds = 89
Dangerous builds = 0
System init for write_data ...
Generated 0 of 1 mixed pair_coeff terms from geometric mixing rule
WARNING: Proc sub-domain size < neighbor skin, could lead to lost atoms (src/domain.cpp:970)
WARNING: Not all mixed pair coeffs generated from mixing. Use write_data with 'pair ij' option to store all pair coeffs. (src/write_data.cpp:309)
Total wall time: 0:00:17
