Generated by ZY code

200 atoms
2 atom types
221 bonds
2 bond types
0 angles
0 angle types
0 dihedrals
0 dihedral types
0 impropers
0 improper types

87.9515999999999991 112.2844596588991379 xlo xhi
97.0366999999999962 102.9774042456354550 ylo yhi
97.2332999999999998 103.1740042456354587 zlo zhi

Masses

1 1.000
2 1.500

Pair Coeffs

1 1.000000 1.000000
2 1.000000 1.000000

Bond Coeffs

1 100.000000 1.200000
2 100.000000 1.200000

Atoms # full

1 1 1 0.000000 97.033700 101.098000 102.127000 -1 -1 -1
2 1 1 0.000000 96.505900 101.478000 97.234700 -1 -1 -1
3 2 1 0.000000 99.227100 99.604300 100.563000 -1 0 1
4 2 1 0.000000 99.618700 99.278100 101.680000 -1 0 1
5 3 1 0.000000 99.163600 98.863200 99.693400 0 0 1
6 3 1 0.000000 100.184000 99.437800 99.937300 0 0 1
7 4 1 0.000000 89.689400 101.860000 100.491000 -2 1 0
8 4 1 0.000000 88.375200 101.573000 100.494000 0 -2 0
9 5 1 0.000000 107.656000 99.691600 99.650100 -2 -3 -1
10 5 1 0.000000 108.805000 99.353400 99.729600 -2 -3 -1
11 6 1 0.000000 94.365000 100.670000 100.409000 1 -2 0
12 6 1 0.000000 95.496000 100.284000 100.351000 1 -2 1
13 7 1 0.000000 96.459100 99.635900 99.824700 0 -1 0
14 7 1 0.000000 95.319300 99.434600 99.794300 1 -2 -1
15 8 1 0.000000 97.311600 100.251000 100.012000 -1 -1 0
16 8 1 0.000000 97.980900 101.054000 100.584000 -1 -1 0
17 9 1 0.000000 97.992300 98.369300 99.808700 -1 0 0
18 9 1 0.000000 96.894600 98.000600 100.106000 -1 0 0
19 10 1 0.000000 90.010600 100.202000 99.705900 0 -1 0
20 10 1 0.000000 91.131900 99.955400 99.462700 0 -1 0
21 11 1 0.000000 95.565700 99.371300 100.904000 -1 0 -1
22 11 1 0.000000 96.741500 99.712700 100.868000 -1 0 0
23 12 1 0.000000 107.106000 100.566000 99.795800 1 -1 0
24 12 1 0.000000 108.445000 100.385000 99.771400 1 -1 0
25 13 1 0.000000 100.742000 101.196000 99.324900 -1 -1 -1
26 13 1 0.000000 100.816000 101.092000 100.566000 -1 -1 -1
27 14 1 0.000000 100.138000 100.182000 102.022000 0 -2 0
28 14 1 0.000000 98.962400 100.051000 102.251000 0 -2 0
29 15 1 0.000000 104.025000 98.755500 100.593000 2 -1 0
30 15 1 0.000000 102.991000 98.788600 100.071000 0 1 0
31 16 1 0.000000 96.243300 98.761300 100.387000 -1 -1 -2
32 16 1 0.000000 95.012900 98.569500 100.322000 -1 -1 -2
33 17 1 0.000000 97.564700 101.731000 101.398000 0 0 -1
34 17 1 0.000000 97.030900 100.732000 101.041000 0 0 -1
35 18 1 0.000000 93.635800 97.036700 100.433000 1 -1 1
36 18 1 0.000000 92.314900 102.518000 100.439000 2 -2 1
37 19 1 0.000000 99.544200 101.078000 99.334600 0 0 -1
38 19 1 0.000000 98.492500 101.459000 99.775000 0 0 -1
39 20 1 0.000000 93.458400 97.757600 99.488400 1 0 1
40 20 1 0.000000 92.274600 97.871200 99.321700 0 1 1
41 21 1 0.000000 101.353000 100.222000 100.941000 2 0 -1
42 21 1 0.000000 102.569000 100.328000 101.075000 2 0 -1
43 22 1 0.000000 95.159800 100.927000 98.587500 0 0 0
44 22 1 0.000000 96.202500 101.339000 99.038700 0 0 0
45 23 1 0.000000 109.331000 101.160000 99.829200 0 -3 -1
46 23 1 0.000000 110.532000 100.920000 99.799500 0 -3 -1
47 24 1 0.000000 112.074000 99.660100 99.165000 -2 0 0
48 24 1 0.000000 88.816300 100.066000 99.466900 -2 0 0
49 25 1 0.000000 107.286000 98.374300 98.506500 0 -2 0
50 25 1 0.000000 106.228000 98.789100 98.979600 -1 -2 0
51 26 1 0.000000 89.195900 100.983000 100.056000 0 0 -1
52 26 1 0.000000 90.232900 101.510000 99.622500 0 0 -1
53 27 1 0.000000 108.261000 98.488800 99.980500 0 0 1
54 27 1 0.000000 107.184000 98.693000 99.516500 0 0 1
55 28 1 0.000000 105.400000 99.691900 101.786000 -2 -1 0
56 28 1 0.000000 106.583000 99.900900 101.678000 -2 -1 0
57 29 1 0.000000 97.318500 99.226800 99.270100 2 0 -1
58 29 1 0.000000 96.289400 98.578300 99.334000 2 0 -1
59 30 1 0.000000 87.951600 99.912800 100.256000 -1 1 1
60 30 1 0.000000 111.007000 99.984600 99.914600 0 -2 1
61 31 1 0.000000 106.904000 99.326700 100.360000 0 1 -2
62 31 1 0.000000 105.754000 99.379000 100.001000 0 1 -2
63 32 1 0.000000 103.261000 99.731700 102.096000 -2 2 -1
64 32 1 0.000000 102.011000 99.639000 101.775000 -1 1 -1
65 33 1 0.000000 89.394900 100.878000 99.022800 -2 -1 0
66 33 1 0.000000 88.121800 100.717000 99.113500 -1 -1 0
67 34 1 0.000000 111.390000 102.497000 100.388000 0 0 -1
68 34 1 0.000000 111.526000 97.752900 100.177000 0 0 -1
69 35 1 0.000000 102.352000 99.659100 100.307000 0 0 1
70 35 1 0.000000 101.183000 99.369400 100.303000 3 -3 1
71 36 1 0.000000 110.607000 99.163800 100.480000 -1 2 0
72 36 1 0.000000 109.396000 99.455700 100.658000 0 1 0
73 37 1 0.000000 99.671200 97.378700 102.257000 1 -3 -1
74 37 1 0.000000 100.079000 102.491000 97.233300 -1 -2 -1
75 38 1 0.000000 105.978000 100.012000 100.798000 1 0 -1
76 38 1 0.000000 104.564000 99.731000 100.963000 1 -1 -1
77 39 1 0.000000 90.354900 99.794200 100.648000 0 1 0
78 39 1 0.000000 91.586500 99.781600 100.417000 -1 2 0
79 40 1 0.000000 104.327000 100.531000 99.955000 -1 -1 2
80 40 1 0.000000 102.928000 100.524000 99.948900 -1 -1 2
81 41 1 0.000000 109.548000 98.942400 99.107300 -1 0 3
82 41 1 0.000000 110.759000 98.992300 99.378600 -1 1 3
83 42 1 0.000000 94.768000 102.275000 100.251000 0 1 -2
84 42 1 0.000000 94.315000 101.442000 99.470100 -1 1 -2
85 43 1 0.000000 98.614600 98.731400 100.609000 1 0 -2
86 43 1 0.000000 99.859300 98.799000 100.714000 1 0 -2
87 44 1 0.000000 103.580000 99.673500 100.147000 1 -1 2
88 44 1 0.000000 104.738000 99.528300 99.905900 1 -1 2
89 45 1 0.000000 106.518000 100.573000 98.845100 0 1 1
90 45 1 0.000000 107.191000 99.456300 98.645400 0 1 1
91 46 1 0.000000 92.625600 99.208700 99.414200 0 -1 -1
92 46 1 0.000000 93.833700 98.859800 99.497100 0 -1 -1
93 47 1 0.000000 106.132000 98.996900 101.106000 -1 0 0
94 47 1 0.000000 107.272000 99.136600 101.380000 -1 0 1
95 48 1 0.000000 97.222500 99.988100 101.849000 2 0 1
96 48 1 0.000000 96.372500 100.386000 102.701000 2 0 1
97 49 1 0.000000 95.716300 102.668000 100.730000 -1 0 -1
98 49 1 0.000000 95.365900 102.935000 99.602900 -1 0 -1
99 50 1 0.000000 99.469000 101.953000 98.636800 0 0 0
100 50 1 0.000000 98.378000 102.274000 99.129900 0 0 0
101 51 1 0.000000 101.826000 98.835800 101.064000 0 -2 0
102 51 1 0.000000 100.528000 98.378400 101.371000 0 -2 0
103 52 1 0.000000 105.526000 99.910700 97.340900 -1 0 1
104 52 1 0.000000 106.656000 100.093000 97.930400 -1 -1 1
105 53 1 0.000000 96.796000 100.212000 98.961100 2 -2 2
106 53 1 0.000000 95.870900 99.391000 98.838200 2 -2 2
107 54 1 0.000000 105.318000 99.849100 99.064600 0 0 0
108 54 1 0.000000 106.546000 99.751600 99.410800 0 0 0
109 55 1 0.000000 95.752500 97.915800 99.963300 -1 0 -1
110 55 1 0.000000 94.565900 97.690500 99.698100 -1 0 -1
111 56 1 0.000000 97.000400 101.593000 100.382000 0 -1 -1
112 56 1 0.000000 97.970400 102.193000 100.420000 -1 0 -1
113 57 1 0.000000 109.980000 100.880000 98.889200 1 -2 0
114 57 1 0.000000 108.727000 100.969000 98.871600 0 -2 0
115 58 1 0.000000 99.389500 99.982200 99.388400 -1 1 0
116 58 1 0.000000 98.281500 100.496000 99.349500 -1 0 0
117 59 1 0.000000 95.546800 98.302900 101.245000 -1 1 0
118 59 1 0.000000 96.698900 98.681400 101.345000 1 -2 -1
119 60 1 0.000000 110.052000 100.816000 100.719000 0 0 1
120 60 1 0.000000 108.730000 100.472000 100.762000 0 0 1
121 61 1 0.000000 94.549900 100.266000 99.321600 -2 0 -1
122 61 1 0.000000 93.476500 99.978600 99.716500 -2 0 -1
123 62 1 0.000000 96.374100 100.786000 100.025000 0 0 0
124 62 1 0.000000 95.308000 101.295000 99.918500 1 -2 0
125 63 1 0.000000 95.157700 102.031000 99.104800 1 -1 0
126 63 1 0.000000 96.110200 101.994000 99.869200 1 -1 0
127 64 1 0.000000 96.169100 102.554000 98.868800 0 1 -1
128 64 1 0.000000 96.936600 97.543200 99.123800 -1 2 -1
129 65 1 0.000000 91.274000 101.789000 99.294700 -1 1 0
130 65 1 0.000000 92.293000 101.568000 99.789200 -1 1 0
131 66 1 0.000000 101.791000 100.047000 99.048700 2 0 0
132 66 1 0.000000 102.931000 99.658200 99.285800 2 0 0
133 67 1 0.000000 96.477600 102.974000 99.957800 0 0 1
134 67 1 0.000000 97.656000 97.230700 100.171000 -1 0 1
135 68 1 0.000000 100.224000 100.485000 99.952100 1 -1 -1
136 68 1 0.000000 98.968800 100.542000 100.226000 1 -1 -1
137 69 1 0.000000 90.127900 98.758000 99.785500 1 0 0
138 69 1 0.000000 88.814000 98.897400 99.971400 -1 1 0
139 70 1 0.000000 91.247700 100.906000 99.991900 -2 -1 -1
140 70 1 0.000000 92.377800 100.412000 99.788500 -2 0 -1
141 71 1 0.000000 108.808000 99.922400 98.821000 2 0 -1
142 71 1 0.000000 110.095000 99.834000 98.867700 0 3 0
143 72 1 0.000000 106.280000 98.457100 100.126000 -2 0 1
144 72 1 0.000000 107.409000 98.398700 100.632000 -2 0 1
145 73 1 0.000000 97.703500 97.983700 101.104000 0 0 1
146 73 1 0.000000 96.321600 97.650200 100.894000 1 -1 1
147 74 1 0.000000 101.665000 101.122000 98.668600 1 1 0
148 74 1 0.000000 102.900000 100.670000 98.856600 1 1 1
149 75 1 0.000000 102.984000 98.616400 98.940200 0 -2 -1
150 75 1 0.000000 104.028000 98.879900 99.479400 0 -2 -1
151 76 1 0.000000 92.656200 98.475100 100.171000 1 1 -1
152 76 1 0.000000 93.890400 98.163700 100.386000 1 1 -1
153 77 1 0.000000 91.933400 100.980000 98.922900 0 1 -3
154 77 1 0.000000 93.190300 101.284000 98.918200 1 0 -3
155 78 1 0.000000 98.573800 99.331700 101.455000 -1 1 0
156 78 1 0.000000 99.062900 100.412000 101.262000 -1 1 0
157 79 1 0.000000 104.129000 99.050600 101.698000 -2 2 -1
158 79 1 0.000000 100.037000 100.916000 98.372300 -1 0 0
159 80 1 0.000000 95.541700 101.745000 98.109700 -1 0 0
160 80 1 0.000000 96.157100 100.686000 98.173900 -1 0 0
161 81 2 0.000000 109.735000 100.076000 99.868800 -2 1 1
162 82 2 0.000000 98.216600 99.554600 99.902500 -1 0 -2
163 83 2 0.000000 105.744000 100.500000 99.811200 -2 0 0
164 84 2 0.000000 98.076700 100.681000 101.704000 -1 -1 0
165 85 2 0.000000 95.486800 100.951000 97.382400 2 0 0
166 86 2 0.000000 97.362300 101.179000 99.402900 -2 1 -1
167 87 2 0.000000 111.392000 101.244000 100.521000 0 1 1
168 88 2 0.000000 97.409600 99.047500 100.420000 0 0 -1
169 89 2 0.000000 89.156600 99.852100 100.460000 1 2 3
170 90 2 0.000000 100.809000 99.385200 101.366000 -1 0 -2
171 91 2 0.000000 104.470000 99.834300 102.542000 2 1 2
172 92 2 0.000000 94.421200 99.569100 100.558000 -1 -1 -1
173 93 2 0.000000 108.278000 98.995600 98.916800 -1 -2 1
174 94 2 0.000000 90.678200 100.849000 98.873200 1 0 0
175 95 2 0.000000 97.199600 102.323000 99.408200 -1 3 1
176 96 2 0.000000 99.113700 98.202500 101.429000 0 0 -1
177 97 2 0.000000 91.497700 98.767900 99.735000 -1 -1 1
178 98 2 0.000000 100.602000 100.109000 99.059200 2 -2 2
179 99 2 0.000000 104.046000 100.051000 99.014100 -1 -1 0
180 100 2 0.000000 93.366500 101.147000 100.012000 1 1 0
181 101 2 0.000000 94.337600 101.702000 98.440300 0 0 0
182 102 2 0.000000 97.976200 100.013000 100.855000 2 0 1
183 103 2 0.000000 96.901900 102.568000 100.850000 -2 -1 -2
184 104 2 0.000000 101.992000 99.020800 99.483000 -1 -2 3
185 105 2 0.000000 103.186000 99.293100 101.081000 0 1 0
186 106 2 0.000000 100.618000 101.783000 98.143800 -1 0 1
187 107 2 0.000000 107.377000 100.191000 100.759000 1 -1 -1
188 108 2 0.000000 95.054100 98.552000 99.207400 2 1 1
189 109 2 0.000000 101.553000 100.548000 99.947400 -1 -2 2
190 110 2 0.000000 111.793000 98.919100 100.082000 0 0 0
191 111 2 0.000000 95.692700 97.720400 98.855000 1 0 -2
192 112 2 0.000000 111.186000 100.489000 98.961100 1 0 0
193 113 2 0.000000 95.720100 100.325000 99.269100 0 -2 -1
194 114 2 0.000000 94.191600 102.696000 99.301000 -1 1 -2
195 115 2 0.000000 100.173000 100.142000 100.943000 0 -2 2
196 116 2 0.000000 105.200000 98.577600 99.589800 0 -1 1
197 117 2 0.000000 108.146000 99.387500 100.570000 0 0 -1
198 118 2 0.000000 91.050100 102.032000 100.373000 1 4 1
199 119 2 0.000000 94.942000 97.484200 100.637000 0 2 0
200 120 2 0.000000 107.617000 100.371000 98.824700 0 3 2

Velocities 

192 0.491864 0.428373 -0.135289
95 0.255812 -0.051895 0.534057
178 -0.256147 -0.389446 0.441537
57 0.479280 0.060818 0.377534
146 0.254475 0.003265 -0.112627
6 -0.444269 -0.558875 0.036188
66 0.000311 0.149676 -0.417745
131 0.067949 -0.360434 -0.398871
132 0.095272 0.135206 0.021194
117 -0.311239 -0.416628 0.075239
115 -0.287770 0.010443 -0.303017
13 0.223399 0.310364 -0.108097
82 0.256289 0.526168 0.356727
154 0.022771 0.634289 -0.565367
22 0.091375 -0.112659 -0.402908
40 -0.622144 -0.024919 -0.189296
5 0.411876 0.231944 0.162551
145 0.067487 0.083608 0.334711
103 -0.273855 -0.660963 -0.011887
191 -0.000398 -0.374168 -0.481201
92 0.345410 -0.501267 -0.306434
17 -0.423043 -0.458083 -0.073924
4 0.029830 -0.109861 0.390402
15 0.728163 0.178881 0.228486
177 -0.167127 -0.207590 0.108084
91 0.377604 0.256145 0.148433
162 -0.014622 -0.240153 0.079998
109 -0.164883 -0.331264 -0.190366
188 -0.321777 0.188136 -0.095368
137 -0.128462 -0.120121 -0.091136
39 -0.462305 0.295475 -0.765256
151 0.067265 -0.372086 -0.023434
59 -0.402903 -0.078246 -0.029832
75 0.617237 -0.297160 0.267814
58 -0.145861 -0.144258 0.142110
133 0.135308 0.146694 -0.307188
168 -0.210713 0.245584 0.021275
152 -0.256919 0.403703 -0.410325
199 0.035812 0.259532 -0.010779
7 0.280210 -0.307238 0.135310
136 0.263776 -0.028544 0.012574
31 -0.016881 0.632825 0.330354
198 0.367467 -0.022961 0.490097
18 -0.081717 0.319274 -0.241713
32 0.009540 0.208868 -0.891132
85 0.029867 0.620840 -0.376678
86 0.012714 -0.109460 -0.336695
35 0.417602 0.113904 0.286035
14 -0.484091 -0.058818 0.077465
36 -0.595484 0.388864 -0.233059
157 0.368721 0.007281 0.180879
110 -0.017434 0.148598 -0.244451
196 -0.534789 -0.049557 -0.111151
96 0.190282 -0.317113 0.670920
142 -0.164123 0.347661 0.323495
43 -0.351747 -0.279483 -0.161740
48 -0.233925 -0.176370 -0.403823
65 -0.370508 -0.248387 -0.894878
44 0.309424 -0.316250 -0.182517
113 -0.105190 0.098962 -0.569644
165 0.036399 0.623669 0.006395
153 -0.028508 -0.076922 -0.132254
12 0.351559 0.596685 0.005883
47 -0.495759 -0.298884 -0.134986
37 -0.191275 -0.460331 -0.116530
123 0.560487 0.058713 -0.158948
174 0.005659 -0.172722 0.215503
84 0.326672 -0.438552 -0.143624
166 0.085671 -0.041082 -0.196229
77 -0.051455 -0.086563 0.350576
125 0.350685 -0.259043 0.292589
19 -0.318168 -0.351558 -0.242842
38 0.275410 -0.112759 0.067163
169 0.045105 -0.298195 0.273214
122 0.350587 -0.213693 0.528568
20 -0.348627 -0.380262 0.240176
129 0.182010 -0.397899 0.024879
33 0.233821 -0.389169 0.256409
51 0.099275 -0.080376 0.216448
16 0.248247 0.297329 0.038302
121 0.219520 -0.212456 0.529668
130 0.274356 0.159970 0.009890
150 0.213801 0.198878 -0.735362
149 -0.215341 0.231378 0.367657
119 0.043915 0.239966 -0.083019
52 0.202452 0.212487 -0.220266
78 0.550803 -0.278298 0.057644
140 -0.853928 0.150600 0.177986
120 0.402147 0.252214 0.346746
182 0.009975 0.311242 -0.169841
180 -0.002967 -0.055623 0.482783
34 0.019692 -0.549634 0.277967
134 -0.170540 0.120522 -0.255662
98 -0.372530 0.285096 0.026527
11 -0.808637 0.230700 -0.025663
2 -0.198151 -0.208743 0.470450
21 -0.060972 -0.087456 0.056446
172 0.240098 -0.221657 0.031974
89 -0.159271 0.295235 -0.441460
53 -0.280310 -0.062141 -0.444220
79 -0.272065 0.487436 -0.035856
158 0.104280 0.404635 0.263213
159 0.397755 0.298398 0.200286
49 -0.334376 0.488565 0.066422
163 0.051470 -0.034861 -0.274167
179 0.146048 0.085142 0.361554
173 -0.064805 0.144541 0.343817
90 0.342553 -0.760349 -0.079273
107 0.292580 -0.260287 0.409719
181 0.400228 -0.067799 0.164400
88 -0.182041 -0.003890 0.141544
54 -0.533198 0.166959 0.254562
62 -0.146437 -0.217624 0.042452
81 0.286228 0.186621 -0.311826
148 0.049405 0.035476 -0.433036
171 0.112636 -0.044216 -0.243970
68 0.345982 -0.012516 0.167904
195 0.239669 -0.575305 0.378897
30 -0.394317 0.243416 0.356923
106 0.168250 0.080888 0.722353
138 0.360263 0.179621 -0.384310
156 -0.555991 -0.079822 -0.208704
190 0.047979 0.136961 -0.173369
42 -0.251648 0.047118 0.059687
29 0.010384 -0.093535 0.366785
3 0.417843 -0.092954 0.488644
183 0.382154 -0.476308 -0.473369
41 0.270822 -0.211110 -0.220178
184 -0.566072 0.151227 0.094704
83 -0.035120 -0.170211 -0.060221
87 0.072579 -0.005625 0.220860
61 -0.213516 -0.164605 0.053356
67 0.156965 0.388278 0.089715
116 -0.253687 0.304785 -0.364172
8 -0.017544 -0.308091 0.044441
170 -0.291519 0.263216 0.196129
70 0.136681 -0.193543 0.001847
118 -0.210996 0.721003 0.306870
73 0.436445 0.384164 0.366271
155 0.229559 -0.260730 -0.092808
64 0.192848 0.222703 -0.199433
69 0.203427 -0.117546 -0.518947
101 0.380410 -0.317690 0.034886
176 0.006093 -0.050765 0.341842
102 0.129596 0.723085 -0.032388
185 -0.343923 -0.038259 -0.080629
76 0.492503 0.291887 0.039427
144 -0.478268 -0.431199 -0.131623
143 -0.018733 0.015049 -0.196837
99 -0.519678 -0.318814 -0.367419
104 0.457838 0.024215 -0.031008
200 -0.497948 0.224110 0.136243
71 0.567018 -0.482428 -0.142897
100 -0.070331 0.110919 0.109202
50 0.240561 -0.115539 0.058212
108 -0.102459 -0.472321 -0.348038
72 0.514256 0.295861 0.136956
105 0.096396 0.505794 -0.101880
94 -0.556876 -0.245309 0.250814
175 -0.152098 -0.115343 0.251539
114 -0.709399 0.090819 -0.343956
23 -0.072956 0.449192 -0.139509
160 -0.082669 -0.205919 0.248279
128 0.204727 0.032105 -0.110199
197 -0.146026 0.213506 0.364275
161 -0.193543 0.176387 -0.299930
80 0.275643 -0.051317 0.320754
111 0.170383 -0.311356 0.549136
124 -0.478767 -0.061779 -0.492339
24 0.398785 -0.073380 0.129300
26 -0.246465 -0.289969 0.504094
60 -0.094696 -0.020473 0.154933
25 0.045813 0.200676 -0.377916
10 0.077796 0.666351 -0.197999
189 0.025450 0.120350 0.517122
46 -0.169511 0.025868 0.143962
127 -0.110176 -0.847791 -0.617684
193 -0.026588 -0.276322 -0.098589
112 0.186648 0.135695 0.188133
167 0.086496 -0.150988 0.270758
187 0.390433 -0.025051 -0.227143
164 -0.330800 0.297975 -0.099889
194 0.491305 0.167431 -0.163398
126 -0.111622 -0.354245 0.090157
74 0.128531 -0.214066 -0.172339
93 -0.126406 0.286419 -0.213753
139 0.158902 -0.787963 -0.205997
28 -0.497737 -0.134241 0.023496
97 -0.190857 -0.167584 -0.151999
63 0.039374 0.185197 -0.446307
56 -0.284521 0.152784 0.274202
147 0.213428 0.513069 -0.156877
186 0.081890 -0.174776 0.162360
1 -0.120909 -0.458972 0.329188
9 0.135203 0.415880 0.070951
55 -0.578111 -0.040007 -0.290291
135 -0.419913 0.340896 -0.426708
45 0.077199 0.583767 -0.314380
141 -0.010726 0.278041 -0.016084
27 0.083351 0.231406 -0.000604

Bonds

1 2 192 66
2 2 192 113
3 2 192 142
4 2 192 47
5 1 95 96
6 2 178 6
7 2 178 115
8 2 178 131
9 2 178 158
10 1 57 58
11 1 131 132
12 1 117 118
13 1 115 116
14 1 13 14
15 1 5 6
16 1 145 146
17 1 103 104
18 1 17 18
19 1 15 16
20 2 177 40
21 2 177 91
22 2 177 151
23 2 177 137
24 1 91 92
25 2 162 3
26 2 162 5
27 2 162 15
28 2 162 17
29 1 109 110
30 2 188 58
31 2 188 92
32 2 188 106
33 2 188 109
34 1 137 138
35 1 39 40
36 1 151 152
37 1 59 60
38 1 75 76
39 1 133 134
40 2 168 13
41 2 168 18
42 2 168 31
43 2 168 85
44 2 199 35
45 2 199 117
46 2 199 146
47 2 199 152
48 1 7 8
49 1 31 32
50 2 198 36
51 2 198 52
52 2 198 139
53 2 198 7
54 1 85 86
55 1 35 36
57 2 196 143
58 2 196 50
59 2 196 150
60 1 43 44
61 1 65 66
62 1 113 114
63 2 165 2
64 2 165 43
66 2 165 96
67 1 153 154
68 1 47 48
69 1 37 38
70 1 123 124
71 2 174 20
72 2 174 65
73 2 174 129
74 2 174 153
75 2 166 38
76 2 166 44
77 2 166 105
78 2 166 123
79 1 77 78
80 1 125 126
81 1 19 20
82 2 169 19
83 2 169 51
84 2 169 59
85 2 169 77
86 1 129 130
87 1 33 34
88 1 51 52
89 1 121 122
90 1 149 150
91 1 119 120
92 2 182 22
93 2 182 34
94 2 182 95
95 2 182 136
96 2 180 130
97 2 180 140
98 2 180 122
99 2 180 11
100 1 11 12
101 1 21 22
102 2 172 14
103 2 172 21
104 2 172 32
106 1 89 90
107 1 53 54
108 1 79 80
109 1 159 160
110 1 49 50
111 2 163 23
113 2 163 79
114 2 163 89
115 2 179 132
116 2 179 148
117 2 179 88
118 2 179 107
119 2 173 49
120 2 173 53
121 2 173 81
122 2 173 90
123 1 107 108
124 2 181 154
125 2 181 159
126 1 81 82
127 2 171 55
128 2 171 63
129 2 171 103
130 2 171 157
131 2 195 26
132 2 195 41
133 2 195 156
134 2 190 68
135 2 190 138
136 2 190 71
137 2 190 82
138 1 29 30
139 1 3 4
140 2 183 97
141 2 183 112
142 1 41 42
143 2 184 30
144 2 184 70
145 1 83 84
146 1 87 88
147 1 61 62
148 1 67 68
149 2 170 4
150 2 170 27
151 2 170 64
152 2 170 86
153 1 73 74
154 1 155 156
155 1 69 70
156 1 101 102
157 2 176 73
158 2 176 155
159 2 176 145
160 2 176 102
161 2 185 42
162 2 185 69
163 2 185 76
164 2 185 101
165 1 143 144
166 1 99 100
167 2 200 108
168 2 200 141
169 2 200 104
170 2 200 114
171 1 71 72
172 1 105 106
173 2 175 100
174 2 175 111
175 2 175 126
176 2 175 128
177 1 23 24
178 2 197 61
179 2 197 72
180 2 197 94
181 2 197 144
182 2 161 10
183 2 161 24
184 2 161 45
185 2 161 60
186 1 111 112
187 1 25 26
188 2 189 25
189 2 189 80
190 2 189 135
191 1 127 128
192 2 193 121
193 2 193 124
194 2 193 160
195 2 167 8
196 2 167 46
197 2 167 67
198 2 167 119
199 2 187 9
200 2 187 56
201 2 187 75
202 2 187 120
203 2 164 1
204 2 164 16
205 2 164 28
206 2 164 33
207 2 194 39
208 2 194 83
209 2 194 98
210 2 194 125
211 1 93 94
212 1 139 140
213 1 97 98
214 1 63 64
215 1 147 148
216 2 186 74
217 2 186 99
218 2 186 147
219 1 1 2
220 1 9 10
221 1 55 56
222 1 135 136
223 1 45 46
224 1 141 142
225 1 27 28

