LAMMPS (23 Jun 2022)
OMP_NUM_THREADS environment is not set. Defaulting to 1 thread. (src/comm.cpp:98)
  using 1 OpenMP thread(s) per MPI task
Reading data file ...
  orthogonal box = (0 0 0) to (200 200 200)
  1 by 1 by 1 MPI processor grid
  reading atoms ...
  200 atoms
  scanning bonds ...
  1 = max bonds/atom
  reading bonds ...
  80 bonds
Finding 1-2 1-3 1-4 neighbors ...
  special bond factors lj:    0        0        0       
  special bond factors coul:  0        0        0       
     1 = max # of 1-2 neighbors
     0 = max # of 1-3 neighbors
     0 = max # of 1-4 neighbors
     1 = max # of special neighbors
  special bonds CPU = 0.000 seconds
  read_data CPU = 0.019 seconds
Generated 0 of 1 mixed pair_coeff terms from geometric mixing rule
Neighbor list info ...
  update every 1 steps, delay 0 steps, check yes
  max neighbors/atom: 2000, page size: 100000
  master list distance cutoff = 5.5
  ghost atom cutoff = 5.5
  binsize = 2.75, bins = 73 73 73
  1 neighbor lists, perpetual/occasional/extra = 1 0 0
  (1) pair lj/cut, perpetual
      attributes: half, newton on
      pair build: half/bin/newton
      stencil: half/bin/3d
      bin: standard
Setting up Verlet run ...
  Unit style    : lj
  Current step  : 0
  Time step     : 0.002
Per MPI rank memory allocation (min/avg/max) = 7.938 | 7.938 | 7.938 Mbytes
   Step          Temp         Density         PotEng        Enthalpy        Press           Pxx            Pyy            Pzz            Pxy            Pxz            Pyz             Lx             Ly             Lz             Xy             Yz             Xz          Density    
         0   1              2.75e-05       2.2913944e-28  2.4875         2.4875e-05     2.4540872e-05  2.7057051e-05  2.3027077e-05 -8.5634887e-07  1.0219777e-06  4.891355e-07   200            200            200            0              0              0              2.75e-05     
       100   2.5447178      0.00020837975  4.8451819     -2.999902      -0.0022056191  -0.0064385531  -9.0783446e-05 -8.752082e-05  -0.0001162961   0.00014895775 -2.4384089e-05  101.82531      101.82531      101.82531      0              0              0              0.00020837975
       200   4.2885894      0.00048094342  1.6434805      17.23405       0.004017998    0.0058374194   0.0033979978   0.0028185769  -4.2955573e-05 -0.00010506667  3.4956721e-05  77.050637      77.050637      77.050637      0              0              0              0.00048094342
       300   3.4160061      0.00083253208  0.11189222     9.1999863      0.0030195976   0.0036163485   0.0029492859   0.0024931585  -1.1944257e-05 -8.9345909e-05  1.0682202e-05  64.17126       64.17126       64.17126       0              0              0              0.00083253208
       400   2.653882       0.0012518399   1.5469034      0.86086765    -0.005288403   -0.0047159139  -0.006098153   -0.0050511421  -0.00040696771 -0.00022652639 -1.123888e-05   56.013318      56.013318      56.013318      0              0              0              0.0012518399 
       500   1.8237582      0.0017357764   1.6514172      11.416943      0.011114597    0.010060345    0.013013381    0.010270066   -0.00058082679  0.00071137023 -3.6466457e-05  50.231518      50.231518      50.231518      0              0              0              0.0017357764 
       600   1.8903524      0.0022800025   0.34776929     2.2916265     -0.0018188073  -0.0020816549  -0.0022352746  -0.0011394924   7.6500113e-05 -0.0004559906  -0.00019208368  45.86652       45.86652       45.86652       0              0              0              0.0022800025 
       700   1.995551       0.0028744032   0.2663953      2.5983814     -0.0016890352  -0.0009435882  -0.0021008454  -0.0020226721  -0.00030387928 -0.00063785592  0.00031267013  42.457883      42.457883      42.457883      0              0              0              0.0028744032 
       800   1.0027572      0.0035283987   0.97895272     7.7806465      0.017016757    0.016069645    0.019831265    0.015149362   -0.0012849975   0.0016527967  -0.00014686117  39.653513      39.653513      39.653513      0              0              0              0.0035283987 
       900   0.95855966     0.0042288057   0.67452743    -1.392955      -0.013448112   -0.013517248   -0.01596069    -0.010866398    0.00090943878 -0.0017774458  -0.00023566729  37.330888      37.330888      37.330888      0              0              0              0.0042288057 
      1000   1.4251685      0.0049741782   0.050873836    3.9564986      0.0080426165   0.0074953435   0.0098479442   0.006784562   -0.0008614268   0.00022076917  0.00039629152  35.364467      35.364467      35.364467      0              0              0              0.0049741782 
      1100   0.91505309     0.0057767462   0.35395228     5.4712676      0.019701848    0.022181485    0.020672242    0.016251817   -0.0012744735   0.0023710305   0.00010583654  33.644427      33.644427      33.644427      0              0              0              0.0057767462 
      1200   0.69178354     0.0066111286   0.68703431    -2.2888594     -0.024090837   -0.030058638   -0.024204744   -0.018009128    0.0016521947  -0.0027075341  -6.3529728e-06  32.164911      32.164911      32.164911      0              0              0              0.0066111286 
      1300   1.0076903      0.007495597    0.25055518     4.926927       0.021617261    0.024103686    0.023925613    0.016822484   -0.0019696123   0.001222787    0.00022444908  30.846471      30.846471      30.846471      0              0              0              0.007495597  
      1400   1.028256       0.0084295236   0.00043016329  3.3361788      0.013802016    0.018786311    0.012566195    0.010053543   -0.00034662891  0.0012023253   5.8947794e-06  29.662418      29.662418      29.662418      0              0              0              0.0084295236 
      1500   0.87639837     0.0093838581   0.42006188    -1.0032396     -0.023300342   -0.036707942   -0.018558306   -0.014634776    0.0010757524  -0.001693532    0.0011912264   28.620711      28.620711      28.620711      0              0              0              0.0093838581 
      1600   0.84739435     0.010398146    0.47987567     5.4985884      0.035485815    0.045968378    0.034953944    0.025535123   -0.0029606024   0.00019225852 -0.00077372953  27.658095      27.658095      27.658095      0              0              0              0.010398146  
      1700   1.0860332      0.011447495    0.063473952    1.4893009     -0.0020301369  -0.0034307595  -0.002564296   -9.5355082e-05  0.0012292126   0.00063049931  0.00061857391  26.785767      26.785767      26.785767      0              0              0              0.011447495  
      1800   1.1837665      0.012516712    0.12484008     0.97807783    -0.010394945   -0.022902185   -0.0016055011  -0.0066771491   0.0014827795  -0.00035821464  0.0018103102   26.000247      26.000247      26.000247      0              0              0              0.012516712  
      1900   0.91648007     0.013651857    0.47256152     5.8008629      0.049152329    0.067593592    0.044138209    0.035725187   -0.0076911712  -0.0011206797  -0.00035588416  25.258661      25.258661      25.258661      0              0              0              0.013651857  
      2000   0.99992622     0.014802218    0.29792613    -0.17406176    -0.026433772   -0.041572364   -0.022397124   -0.015331827    0.0058442086   0.0045426405  -0.0029320151   24.586608      24.586608      24.586608      0              0              0              0.014802218  
      2100   1.250775       0.015985423   -0.0096015111   2.780306       0.013415051    0.012102928    0.017917051    0.010225174   -0.0014988676  -0.00078890357  0.0023535814   23.964379      23.964379      23.964379      0              0              0              0.015985423  
      2200   0.98863908     0.017232564    0.20934784     4.9363673      0.050937512    0.072401661    0.044778303    0.035632572   -0.0041570468  -0.0047764815   0.00059633288  23.371733      23.371733      23.371733      0              0              0              0.017232564  
      2300   0.83143243     0.018476115    0.38767177    -1.1603377     -0.046844047   -0.072535358   -0.040336166   -0.027660616    0.0041113203   0.0040354531  -0.0016055787   22.835157      22.835157      22.835157      0              0              0              0.018476115  
      2400   1.0363075      0.019775462    0.076157996    3.8512477      0.040061502    0.050769287    0.038321648    0.03109357    -0.0063493001  -0.004506408    0.00088916403  22.323657      22.323657      22.323657      0              0              0              0.019775462  
      2500   1.0081013      0.021123608   -0.016149757    3.3885509      0.036488334    0.048479751    0.030518759    0.030466492   -0.0024970315  -0.0034076521  -0.0029685709   21.838268      21.838268      21.838268      0              0              0              0.021123608  
      2600   0.8522395      0.022460573    0.26283136    -0.90630777    -0.04984423    -0.071064762   -0.034642277   -0.043825651    0.004019619    0.0063337749   0.0062584874   21.396067      21.396067      21.396067      0              0              0              0.022460573  
      2700   0.93234048     0.023872634    0.16283863     4.5011991      0.063953533    0.074376563    0.062263798    0.055220239   -0.0048643284  -0.0075294419   0.0013863312   20.965607      20.965607      20.965607      0              0              0              0.023872634  
      2800   1.0696951      0.025304753   -0.077369354    2.076874       0.012830048    0.0094899018   0.015400731    0.01359951    -0.0033664779   0.00025222947 -0.0020708738   20.562387      20.562387      20.562387      0              0              0              0.025304753  
      2900   1.0459152      0.02673127     0.061199024    0.19240563    -0.034746322   -0.037345043   -0.030644154   -0.03624977     0.0050124459  -0.0018647208   0.0024365611   20.189909      20.189909      20.189909      0              0              0              0.02673127   
      3000   0.96961511     0.028246429    0.17141489     4.8689912      0.083466293    0.090638346    0.080799518    0.078961014   -0.004445948    0.0011942672   0.0047728456   19.822254      19.822254      19.822254      0              0              0              0.028246429  
      3100   1.0389089      0.029755748    0.027746642    0.82550687    -0.020364057   -0.035356857   -0.011023933   -0.014711381    0.0025008476  -0.0023456358  -0.011209122    19.48127       19.48127       19.48127       0              0              0              0.029755748  
      3200   1.1408087      0.03128043    -0.084208357    1.447222      -0.0048691324  -0.0014750722   0.00075275474 -0.01388508    -0.0014954659  -0.0087596316   0.00088577538  19.159463      19.159463      19.159463      0              0              0              0.03128043   
      3300   0.99753024     0.03289382     0.031542114    4.5138683      0.089516416    0.10125002     0.084919268    0.082379961   -0.0052127819   0.010523334    0.00097815718  18.84095       18.84095       18.84095       0              0              0              0.03289382   
      3400   0.96487176     0.03447136     0.011262107    0.016381907   -0.04496793    -0.064694325   -0.04094704    -0.029262425   -0.00013145852 -0.010318852   -0.0037778287   18.549039      18.549039      18.549039      0              0              0              0.03447136   
      3500   1.038871       0.036101344   -0.13093753     2.2613154      0.027625339    0.035093301    0.037897747    0.0098849693  -0.0016969742  -0.0082192359   0.0012295461   18.265565      18.265565      18.265565      0              0              0              0.036101344  
      3600   0.97418553     0.037790077   -0.12950269     3.4855903      0.074244484    0.075618783    0.074836234    0.072278435   -0.0088090318   0.014466746   -0.0032676728   17.989329      17.989329      17.989329      0              0              0              0.037790077  
      3700   0.86531798     0.039450403    0.0051789388  -0.48872018    -0.064031096   -0.069031536   -0.069574185   -0.053487567    0.0080497773  -0.0094192797   0.0030098664   17.733335      17.733335      17.733335      0              0              0              0.039450403  
      3800   0.94664526     0.041191727   -0.10460022     3.0162879      0.06396027     0.060983531    0.082362014    0.048535264   -0.0021374494   0.0041566864  -0.0017068345   17.479844      17.479844      17.479844      0              0              0              0.041191727  
      3900   0.99346025     0.042955612   -0.18762179     2.7253867      0.055852801    0.066880163    0.047355754    0.053322487   -0.01813743     0.010150594    0.018215788    17.237235      17.237235      17.237235      0              0              0              0.042955612  
      4000   1.0048744      0.04469368    -0.15171068     0.11696948    -0.050020148   -0.056163601   -0.035739483   -0.058157359    0.0063531334  -0.0035469644   0.0042257027   17.010831      17.010831      17.010831      0              0              0              0.04469368   
      4100   1.0004341      0.046523697   -0.12175982     3.7650039      0.10123623     0.096228966    0.11348382     0.093995923    0.0057100369   0.013422827    0.010846439    16.784799      16.784799      16.784799      0              0              0              0.046523697  
      4200   1.0730311      0.048333539   -0.24645219     1.5955295      0.010566715    0.0053568835   0.006597026    0.019746236   -0.020713474   -0.018182693   -0.011612514    16.572627      16.572627      16.572627      0              0              0              0.048333539  
      4300   1.0641264      0.050158592   -0.23362445     1.1417945     -0.0097029417   0.0079425535  -0.010447029   -0.026604349    0.010629895   -0.01194277     0.0079458019   16.369137      16.369137      16.369137      0              0              0              0.050158592  
      4400   1.0157661      0.052064649   -0.21819119     3.1475584      0.087549959    0.074149149    0.092841228    0.095659499   -0.0079558664   0.0078304832   0.00070385504  16.166894      16.166894      16.166894      0              0              0              0.052064649  
      4500   0.98194282     0.053956656   -0.23674988     0.70809964    -0.025541125   -0.033434379   -0.025185704   -0.018003292   -0.005906472   -0.014444706    0.013228493    15.975675      15.975675      15.975675      0              0              0              0.053956656  
      4600   0.96056822     0.055887303   -0.23283112     1.8659318      0.03379225     0.049205491    0.036211268    0.01595999     0.021896551   -0.029841066   -0.00043081412  15.789553      15.789553      15.789553      0              0              0              0.055887303  
      4700   0.95149338     0.057865764   -0.26080172     2.5084843      0.070974053    0.079733885    0.073471033    0.059717241   -0.01425444     0.0081960581  -0.018900195    15.607511      15.607511      15.607511      0              0              0              0.057865764  
      4800   0.91963868     0.059842004   -0.220628       0.50511003    -0.035188333   -0.051070575   -0.015012978   -0.039481447   -0.017084177    0.017883131    0.024743273    15.433776      15.433776      15.433776      0              0              0              0.059842004  
      4900   0.97036159     0.061862029   -0.25795013     2.1063342      0.051515306    0.042686739    0.060856158    0.051003021    0.006694259   -0.0073708106   0.0038531314   15.263923      15.263923      15.263923      0              0              0              0.061862029  
      5000   1.0348727      0.063912629   -0.32923212     2.1884068      0.056538937    0.068239739    0.05246225     0.048914823   -0.010101654   -0.0048453939  -0.00069461116  15.098901      15.098901      15.098901      0              0              0              0.063912629  
      5100   1.0400242      0.065926395   -0.28487003     0.87476327    -0.0235299     -0.028306414   -0.0012304461  -0.04105284    -0.012665411    0.011355292    0.015045799    14.943573      14.943573      14.943573      0              0              0              0.065926395  
      5200   1.0362519      0.068028622   -0.26945926     2.6086322      0.082344658    0.093730841    0.062871843    0.090431291   -0.0045660402  -0.0019816634  -0.0061378347   14.78803       14.78803       14.78803       0              0              0              0.068028622  
      5300   1.0815169      0.070122474   -0.3621813      1.6082048      0.022708345    0.013636664    0.043321554    0.011166816    0.012299611    0.010679452   -0.0043363872   14.639351      14.639351      14.639351      0              0              0              0.070122474  
      5400   1.0587005      0.072232483   -0.36413783     1.1247544     -0.0059899226   0.0011126862   0.011009325   -0.03009178    -0.021983258    0.019262577    0.010085277    14.495395      14.495395      14.495395      0              0              0              0.072232483  
      5500   1.018221       0.074397866   -0.36654804     2.4099348      0.085002133    0.10884815     0.062015967    0.084142282   -0.002264358    0.012459892    0.005964678    14.353376      14.353376      14.353376      0              0              0              0.074397866  
      5600   0.99243625     0.076568306   -0.40044686     1.2615449      0.012583698    0.022352313    0.028634261   -0.013235478   -0.0014517477   0.027941412   -0.00041019624  14.216452      14.216452      14.216452      0              0              0              0.076568306  
      5700   0.95781242     0.078747816   -0.38310104     1.1992187      0.010937692    0.016084141    0.023168702   -0.0064397682   0.0026444711  -0.01606131     0.02236264     14.084066      14.084066      14.084066      0              0              0              0.078747816  
      5800   0.95013512     0.081010695   -0.40608804     2.1293859      0.082291938    0.09296635     0.047373424    0.10653604    -0.0046224936  -0.00093291325  0.0039826665   13.951689      13.951689      13.951689      0              0              0              0.081010695  
      5900   0.94114695     0.083239888   -0.40107701     0.84332028    -0.012127638   -0.059203053    0.041317303   -0.018497164   -0.0049080632   0.049240186   -0.026660375    13.826016      13.826016      13.826016      0              0              0              0.083239888  
      6000   1.0150905      0.085528946   -0.50444591     1.5376519      0.040981983    0.023617365    0.064690829    0.034637756    0.015959062   -0.028069966    0.0069090098   13.701555      13.701555      13.701555      0              0              0              0.085528946  
      6100   1.0208395      0.087848295   -0.51603551     1.7706557      0.06094182     0.11552216     0.010580591    0.05672271    -0.018577845   -0.0027808204   0.036881795    13.579896      13.579896      13.579896      0              0              0              0.087848295  
      6200   1.0023596      0.090157409   -0.4924093      0.74943409    -0.020832774   -0.026073171    0.005705563   -0.042130715   -0.00097156091  0.016243521    0.022172712    13.462956      13.462956      13.462956      0              0              0              0.090157409  
      6300   1.053975       0.092500235   -0.58018244     1.6501263      0.055268977    0.077343697    0.07668811     0.011775124    0.022111888   -0.004754055   -0.037175495    13.34832       13.34832       13.34832       0              0              0              0.092500235  
      6400   1.0620702      0.094874405   -0.63661438     1.7587957      0.069885373    0.035027825    0.096245465    0.07838283    -0.0027228973  -0.012507438    0.01362778     13.236034      13.236034      13.236034      0              0              0              0.094874405  
      6500   1.0045013      0.09725511    -0.6090772      0.47187641    -0.036980328   -0.032025268   -0.036390377   -0.04252534     0.0224072     -0.00097678793  0.0080339284   13.127139      13.127139      13.127139      0              0              0              0.09725511   
      6600   0.98488982     0.099688844   -0.63232813     1.6038386      0.069439508    0.064207296    0.073358926    0.070752302    0.0055173484   0.005595577   -0.0044879112   13.019432      13.019432      13.019432      0              0              0              0.099688844  
      6700   0.98059696     0.10212253    -0.68553094     1.1190755      0.031664063    0.068825695    0.034421831   -0.0082553372  -0.016441303   -0.00069906531 -0.0096058814   12.915177      12.915177      12.915177      0              0              0              0.10212253   
      6800   0.94347291     0.10462087    -0.67773068     0.56854264    -0.015394485   -0.021843169   -0.008781041   -0.015559245    0.036616962    0.017921285    0.014070897    12.811543      12.811543      12.811543      0              0              0              0.10462087   
      6900   0.94721863     0.10715245    -0.71071606     1.2137717      0.049754192    0.02791172     0.069052042    0.052298814    0.0039705624  -0.051317511    0.00072376885  12.709843      12.709843      12.709843      0              0              0              0.10715245   
      7000   1.0073688      0.10966876    -0.81371967     0.95847473     0.02678873     0.027643391    0.034679125    0.018043675   -0.022079547    0.0009580673   0.025262467    12.611882      12.611882      12.611882      0              0              0              0.10966876   
      7100   0.96838465     0.11222549    -0.75542951     0.87417038     0.018801423    0.066788925   -0.019845812    0.0094611567   0.01467904    -0.0039907568  -0.0039405222   12.515371      12.515371      12.515371      0              0              0              0.11222549   
      7200   0.93659624     0.11479366    -0.68966286     1.4126509      0.073514261    0.081886732    0.094381048    0.044275004   -0.010958923    0.034597767   -0.02743973     12.421335      12.421335      12.421335      0              0              0              0.11479366   
      7300   0.99591952     0.11736379    -0.74744299     0.99141616     0.02693491     0.04085407    -0.020376891    0.060327552    0.028917056   -0.019923362   -0.021409386    12.329994      12.329994      12.329994      0              0              0              0.11736379   
      7400   1.0659181      0.11991576    -0.81335181     0.83122947     0.0058539116  -0.041715202   -0.019208026    0.078484962   -0.023386641    0.018701587    0.02036462     12.241899      12.241899      12.241899      0              0              0              0.11991576   
      7500   1.0159993      0.12254003    -0.72064863     1.5444195      0.083403992    0.12824828     0.06896408     0.05299962     0.014128255    0.013997475   -0.037868388    12.153879      12.153879      12.153879      0              0              0              0.12254003   
      7600   0.99969172     0.12518326    -0.69101978     0.69977503    -0.011521991    0.056955964   -0.051333858   -0.04018808     0.041164196   -0.023468339    0.034019577    12.067727      12.067727      12.067727      0              0              0              0.12518326   
      7700   1.0239714      0.12782337    -0.71958938     1.102593       0.034152677   -0.0061813942   0.082131976    0.026507449   -0.016761884    0.0088593523   0.013100259    11.984065      11.984065      11.984065      0              0              0              0.12782337   
      7800   1.0168392      0.13047834    -0.72644997     1.8876522      0.13005957     0.096961034    0.038134185    0.25508349     0.026100033   -0.0036580712  -0.027895422    11.902223      11.902223      11.902223      0              0              0              0.13047834   
      7900   1.0172003      0.1331599     -0.76445485     0.5835841     -0.020595305   -0.02222205     0.019945627   -0.059509491    0.02007515    -0.044576111   -0.006002807    11.821785      11.821785      11.821785      0              0              0              0.1331599    
      8000   0.96689019     0.13590832    -0.7186302      1.0111601      0.03542348     0.077449699    0.05748481    -0.028664067    0.0010873736   0.00049435242  0.072199311    11.741553      11.741553      11.741553      0              0              0              0.13590832   
      8100   0.98362361     0.13867255    -0.76664156     1.0795927      0.047675125    0.047009439    0.027922761    0.068093177    0.019737702    0.010860029   -0.0075481315   11.663012      11.663012      11.663012      0              0              0              0.13867255   
      8200   0.99662884     0.14146012    -0.80107748     0.69128757     0.0006296914   0.0066010446  -0.01234639     0.0076344195   0.0004740229   0.026299225    0.02208776     11.585894      11.585894      11.585894      0              0              0              0.14146012   
      8300   1.0535039      0.14425973    -0.90422629     1.2061235      0.070555507    0.042254177    0.10653746     0.062874886    0.057392732    0.02582568    -0.015579572    11.510456      11.510456      11.510456      0              0              0              0.14425973   
      8400   1.0357442      0.14705169    -0.91853106     1.1097091      0.064487766   -0.026150409    0.12919326     0.090420445    0.031130785   -0.022198604    0.013584109    11.437143      11.437143      11.437143      0              0              0              0.14705169   
      8500   0.98761685     0.1497899     -0.89848583     0.48758921    -0.011975445   -0.0074651541   0.012256502   -0.040717683    0.0095475251   0.011624444   -0.0094360715   11.367022      11.367022      11.367022      0              0              0              0.1497899    
      8600   0.98899882     0.15269802    -0.96725024     0.77790873     0.037352467    0.1067856     -0.011947656    0.017219452    0.056245814   -0.049265477   -0.02834921     11.294398      11.294398      11.294398      0              0              0              0.15269802   
      8700   0.93366263     0.15562597    -0.93969965     0.55192889     0.01388425    -0.026912094    0.037335634    0.03122921     0.065280337    0.0069681731  -0.047882361    11.223118      11.223118      11.223118      0              0              0              0.15562597   
      8800   0.92849593     0.15850799    -0.95674115     0.79374299     0.052553173    0.12042806     0.018202129    0.019029329   -0.0061008728  -0.022068086    0.010115416    11.154682      11.154682      11.154682      0              0              0              0.15850799   
      8900   0.94846899     0.16144056    -0.98900134     0.37884688    -0.0070067773  -0.033236267    0.069389216   -0.057173281    0.0080153816  -0.0092957447   0.023344987    11.086727      11.086727      11.086727      0              0              0              0.16144056   
      9000   0.94019671     0.1644912     -0.95196408     0.366074      -0.012741414   -0.10515008    -0.043551349    0.11047719    -0.051379428    0.0079969074   0.0090981086   11.017761      11.017761      11.017761      0              0              0              0.1644912    
      9100   0.98929466     0.16749875    -0.96543067     0.44270612    -0.010413168   -0.010414884   -0.0044157508  -0.016408869   -0.0063657712  -0.075696894    0.028168711    10.951418      10.951418      10.951418      0              0              0              0.16749875   
      9200   1.0579088      0.1706019     -1.0084508      0.67876339     0.016794263    0.080956593   -0.017460566   -0.013113238    0.01142642    -0.0057653904  -0.049331234    10.884612      10.884612      10.884612      0              0              0              0.1706019    
      9300   1.0740192      0.17362556    -0.97926569     0.87733573     0.040032953   -0.035365516    0.10900399     0.046460382   -0.024277466   -0.02158089     0.030837522    10.821057      10.821057      10.821057      0              0              0              0.17362556   
      9400   1.0924695      0.17661179    -0.99465684     1.0495062      0.066414441    0.0792132      0.044192314    0.07583781     0.041929798    0.018044214   -0.053778462    10.759721      10.759721      10.759721      0              0              0              0.17661179   
      9500   1.0227155      0.17953543    -0.91951387     1.1812228      0.093739335    0.13443363     0.050852126    0.095932249   -0.065670134    0.12082797    -0.078072739    10.700995      10.700995      10.700995      0              0              0              0.17953543   
      9600   1.0497677      0.18252667    -1.0252472      0.47925399    -0.010333845   -0.072509094   -0.01033126     0.051838818    0.036369847    0.016086469    0.024633849    10.642217      10.642217      10.642217      0              0              0              0.18252667   
      9700   1.0636175      0.18563236    -1.1328322      0.90217547     0.075528513    0.088832394    0.10211352     0.035639623   -0.030114146   -0.0043536854   0.034095564    10.582534      10.582534      10.582534      0              0              0              0.18563236   
      9800   1.0054752      0.18867229    -1.1418114      0.40044297     0.0071322653  -0.045160711    0.095696602   -0.029139095    0.12918289    -0.029827372   -0.023834596    10.52539       10.52539       10.52539       0              0              0              0.18867229   
      9900   0.9287044      0.19176353    -1.1071208      0.65358015     0.06530588     0.027760893    0.12150992     0.046646825   -0.093975502    0.006619736    0.038664856    10.468526      10.468526      10.468526      0              0              0              0.19176353   
     10000   0.89845029     0.19489019    -1.11592       -0.12110069    -0.061322687    0.06108861    -0.11180321    -0.13325346    -0.024087602   -0.032094036    0.0044441473   10.412242      10.412242      10.412242      0              0              0              0.19489019   
     10100   0.88204771     0.19820076    -1.1035962      0.47023419     0.046374323    0.036964334    0.050825993    0.051332641   -0.042961371   -0.049765242   -0.021529407    10.353943      10.353943      10.353943      0              0              0              0.19820076   
     10200   0.91771581     0.20152143    -1.1213341      0.45056239     0.037044345    0.03197814     0.031297967    0.047856928   -0.073722711    0.057707937   -0.020863265    10.296758      10.296758      10.296758      0              0              0              0.20152143   
     10300   0.98310624     0.2047412     -1.1436735      0.06714775    -0.047735376   -0.039161254   -0.038781962   -0.065262913    0.061393344   -0.021793238    0.0098028112   10.242496      10.242496      10.242496      0              0              0              0.2047412    
     10400   1.0955862      0.20800525    -1.2314302      0.47252792     0.013008968   -0.035998068    0.024785038    0.050239934    0.012158807    0.0022248591  -0.029323218    10.188638      10.188638      10.188638      0              0              0              0.20800525   
     10500   1.1352722      0.21139079    -1.2619741      0.91250814     0.092260241    0.091261408    0.051436177    0.13408314    -0.019204188   -0.056294101   -0.044556224    10.133953      10.133953      10.133953      0              0              0              0.21139079   
     10600   1.1173371      0.21456947    -1.2612571     -0.20866452    -0.11997027    -0.11865652    -0.071516013   -0.16973829    -0.1222262      0.10783834     0.012495819    10.083661      10.083661      10.083661      0              0              0              0.21456947   
     10700   1.050594       0.21793938    -1.2540192      1.4773804      0.23049824     0.13843957     0.28761086     0.26544429     0.11085279     0.073696254   -0.02930554     10.031418      10.031418      10.031418      0              0              0              0.21793938   
     10800   1.047255       0.22116169    -1.3598102      0.31597626     0.022670767   -0.0040516647   0.090629482   -0.018565518   -0.094543317   -0.084194342   -0.018760413    9.9824603      9.9824603      9.9824603      0              0              0              0.22116169   
     10900   0.96161473     0.22451521    -1.3421696      0.11515857     0.00451443     0.07297235     0.020732138   -0.080161199   -0.028214066    0.016728934   -0.0095284177   9.9325091      9.9325091      9.9325091      0              0              0              0.22451521   
     11000   0.94766091     0.22778923    -1.4003267      0.48449449     0.097418682    0.12277602     0.089475514    0.080004515    0.089973991    0.090287802   -0.045444443    9.8846925      9.8846925      9.8846925      0              0              0              0.22778923   
     11100   0.87938069     0.23115084    -1.3525776     -0.21709091    -0.037191959   -0.057685089   -0.015343797   -0.038546992   -0.009112709    0.065944826    0.022754433    9.8365408      9.8365408      9.8365408      0              0              0              0.23115084   
     11200   0.924042       0.2347043     -1.4287517     -0.98694103    -0.19999411    -0.17927439    -0.36581727    -0.054890669   -0.073728456    0.023168958   -0.059696329    9.7866459      9.7866459      9.7866459      0              0              0              0.2347043    
     11300   0.98259877     0.23846502    -1.4920368      0.8919288      0.19888784     0.19489171     0.22119171     0.18058009    -0.022072677    0.07426984    -0.11147929     9.7349262      9.7349262      9.7349262      0              0              0              0.23846502   
     11400   1.0698859      0.24186723    -1.5832321     -0.10733364    -0.026584778    0.064666023   -0.0086540518  -0.13576631    -0.034392745   -0.060673272    0.027097026    9.6890653      9.6890653      9.6890653      0              0              0              0.24186723   
     11500   1.0576716      0.24517745    -1.5394458      0.75432788     0.15940965     0.37300817    -0.066197165    0.17141795     0.012002765   -0.038032117    0.0081113385   9.6452625      9.6452625      9.6452625      0              0              0              0.24517745   
     11600   1.1048672      0.24836334    -1.6296486      0.43779027     0.094473923    0.00091556939  0.2107565      0.071749695    0.072481114   -0.046695417    0.017264668    9.6038432      9.6038432      9.6038432      0              0              0              0.24836334   
     11700   1.0485476      0.25165413    -1.6027446     -0.62637632    -0.1346553     -0.055367019   -0.1224507     -0.22614819    -0.13480153    -0.072326919   -0.11888522     9.5617975      9.5617975      9.5617975      0              0              0              0.25165413   
     11800   1.0097756      0.25530233    -1.622788       0.025428346    0.03275442     0.024025339    0.12604599    -0.051808064    0.020399979   -0.040647041   -0.061654128    9.5160336      9.5160336      9.5160336      0              0              0              0.25530233   
     11900   0.97740613     0.25889925    -1.6398098      0.052609002    0.054990229   -0.031331262    0.052383725    0.14391822    -0.080572183   -0.067066631    0.054899287    9.4717588      9.4717588      9.4717588      0              0              0              0.25889925   
     12000   0.96427384     0.26255103    -1.6863859     -0.77983989    -0.12713023    -0.13135372    -0.087957585   -0.16207939    -0.073184713    0.023911727    0.048007553    9.4276398      9.4276398      9.4276398      0              0              0              0.26255103   
     12100   0.94211638     0.26624063    -1.7028112     -0.37395272    -0.018697393   -0.03874246    -0.035464536    0.018114815   -0.01127123    -0.0032123015   0.023125614    9.3838873      9.3838873      9.3838873      0              0              0              0.26624063   
     12200   0.90997285     0.27003954    -1.677541      -0.13500332     0.045269223   -0.022117816    0.14680502     0.011120465   -0.016036892    0.032274921   -0.016747899    9.3396752      9.3396752      9.3396752      0              0              0              0.27003954   
     12300   0.90879337     0.27388666    -1.6536443     -0.49028084    -0.04805731     0.023516506   -0.011167652   -0.15652078    -0.089339033    0.0063138169   0.056691829    9.2957392      9.2957392      9.2957392      0              0              0              0.27388666   
     12400   0.96616178     0.27766996    -1.6743298     -0.37980518    -0.037225915   -0.14123887     0.16020176    -0.13064064     0.084591472   -0.005610521   -0.018925918    9.2533274      9.2533274      9.2533274      0              0              0              0.27766996   
     12500   1.0402789      0.28147546    -1.7162638      0.58796689     0.19232819     0.15150326     0.28559957     0.13988175    -0.072411381   -0.030891897   -0.025382146    9.2114369      9.2114369      9.2114369      0              0              0              0.28147546   
     12600   1.07057        0.28497373    -1.706414      -0.10919833    -0.00015802822  0.071421881   -0.14790322     0.076007249    0.023104641    0.040475578    0.025991716    9.1735891      9.1735891      9.1735891      0              0              0              0.28497373   
     12700   1.0897389      0.28852865    -1.722759      -0.21393449    -0.030849188   -0.15218263    -0.060857811    0.12049288     0.057800979    0.086741902   -0.084972068    9.1357578      9.1357578      9.1357578      0              0              0              0.28852865   
     12800   1.1817665      0.29225079    -1.9092701     -0.25253807    -0.028442477   -0.097354071   -0.060909147    0.072935788   -0.11939017     0.09057137    -0.062693301    9.0968073      9.0968073      9.0968073      0              0              0              0.29225079   
     12900   1.0932572      0.29593327    -1.888405      -0.30486548    -0.012952971   -0.15575737     0.016688453    0.10021        0.010995791   -0.011211615    0.1175002      9.0589173      9.0589173      9.0589173      0              0              0              0.29593327   
     13000   1.0593871      0.29956738    -1.9619917     -0.35289633     0.0076144834  -0.011110619    0.011845553    0.022108517   -0.0071445282   0.10859638    -0.084610422    9.0221363      9.0221363      9.0221363      0              0              0              0.29956738   
     13100   0.98451002     0.30342078    -1.9440586     -0.82155601    -0.095681973   -0.013301703   -0.068069072   -0.20567514     0.0088248242   0.015328527   -0.015949152    8.9837802      8.9837802      8.9837802      0              0              0              0.30342078   
     13200   0.92489239     0.30752736    -1.9148375     -1.2633894     -0.20379385    -0.30954428    -0.14205551    -0.15978177    -0.227945      -0.086868761   -0.060005078    8.9436125      8.9436125      8.9436125      0              0              0              0.30752736   
     13300   0.99696256     0.31178028    -2.0476308     -0.92828452    -0.10448052    -0.098537757   -0.087763303   -0.1271405     -0.10939849     0.14190415     0.044722474    8.9027602      8.9027602      8.9027602      0              0              0              0.31178028   
     13400   0.98506771     0.315933      -2.0360364     -0.21266596     0.10143084     0.067917872    0.07041691     0.16595775    -0.032088249    0.041491293   -0.066987883    8.8635812      8.8635812      8.8635812      0              0              0              0.315933     
     13500   1.0268494      0.31993545    -2.1006057     -0.88787238    -0.093025415   -0.11327121    -0.095127681   -0.070677358   -0.038880915   -0.04363646     0.075371394    8.8264644      8.8264644      8.8264644      0              0              0              0.31993545   
     13600   1.0071672      0.324027      -2.0848764     -0.38231313     0.058727299    0.18667743     0.16476931    -0.17526485     0.20986858     0.061989136    0.11928819     8.7891557      8.7891557      8.7891557      0              0              0              0.324027     
     13700   1.0413078      0.32785049    -2.1529667     -0.60346022    -0.0013845569   0.17387689     0.022551227   -0.20058179     0.052909838   -0.0077371163  -0.037315407    8.7548548      8.7548548      8.7548548      0              0              0              0.32785049   
     13800   1.0026731      0.33171354    -2.1271554     -0.75726366    -0.038176579   -0.057675783    0.0016299145  -0.058483869    0.005320857   -0.10861188    -0.062381635    8.7207364      8.7207364      8.7207364      0              0              0              0.33171354   
     13900   0.97328087     0.33564024    -2.1265805     -0.24790622     0.13000036     0.20390796     0.083987774    0.10210534     0.19910023    -0.018378463    0.1408247      8.6865946      8.6865946      8.6865946      0              0              0              0.33564024   
     14000   0.96466564     0.33953796    -2.1471819     -0.69208477     0.0047330424   0.14899611    -0.0037616924  -0.13103529     0.074377661   -0.19326813     0.10771529     8.6532274      8.6532274      8.6532274      0              0              0              0.33953796   
     14100   1.0088612      0.34375327    -2.2473221     -1.6129245     -0.2722925     -0.13181443    -0.40811315    -0.2769499     -0.10731061    -0.091226749   -0.068606453    8.6177114      8.6177114      8.6177114      0              0              0              0.34375327   
     14200   1.0049765      0.34817692    -2.2784028     -0.77952561    -0.00033244927 -0.02079515    -0.094645796    0.1144436      0.032998857   -0.034857664    0.063656655    8.5810592      8.5810592      8.5810592      0              0              0              0.34817692   
     14300   0.95346995     0.35232436    -2.2414994     -0.55587971     0.084098467    0.1896454      0.16834836    -0.10569835     0.00015488961  0.11177113    -0.032162298    8.5472552      8.5472552      8.5472552      0              0              0              0.35232436   
     14400   0.9736397      0.35632337    -2.2988259     -1.2599833     -0.13420907    -0.2510842     -0.082186512   -0.069356496    0.010118209   -0.028052949    0.076647371    8.5151596      8.5151596      8.5151596      0              0              0              0.35632337   
     14500   0.98093836     0.36068853    -2.3435668     -0.59133516     0.094494201    0.12615684     0.1168841      0.040441664    0.027521795    0.066337666   -0.1169052      8.4806691      8.4806691      8.4806691      0              0              0              0.36068853   
     14600   0.93061899     0.36498756    -2.2974001     -1.1326204     -0.074380879   -0.10405496     0.01397573    -0.13306341    -0.024254026   -0.17607909     0.12031627     8.4472407      8.4472407      8.4472407      0              0              0              0.36498756   
     14700   0.99622162     0.36945943    -2.415913      -1.373134      -0.14915471     0.1041231     -0.28362647    -0.26796077     0.015447294    0.017914201   -0.0625803      8.413021       8.413021       8.413021       0              0              0              0.36945943   
     14800   0.99166138     0.37378407    -2.4145485     -0.88284477     0.017550557    0.13560672    -0.0034605255  -0.079494523   -0.053943654   -0.073532779    0.023803578    8.3804492      8.3804492      8.3804492      0              0              0              0.37378407   
     14900   0.96905593     0.37810066    -2.3726075     -0.94545454    -0.0065868757  -0.24411896     0.14270654     0.081651791    0.067652463   -0.038270251    0.11257845     8.3484352      8.3484352      8.3484352      0              0              0              0.37810066   
     15000   0.9847637      0.38244998    -2.3600414     -1.2593085     -0.12830393    -0.041874587   -0.18213978    -0.16089743    -0.039803366    0.040997844   -0.001410218    8.3166677      8.3166677      8.3166677      0              0              0              0.38244998   
     15100   0.97698142     0.38687753    -2.2836786     -0.95233064    -0.044595302   -0.22424336     0.010273172    0.080184283    0.11317532     0.11462489    -0.012181155    8.2848196      8.2848196      8.2848196      0              0              0              0.38687753   
     15200   1.0231884      0.3915088     -2.2798988     -0.79658983    -0.015589101   -0.091325851    0.11755011    -0.072991564   -0.18299182     0.0055508507  -0.12096615     8.2520221      8.2520221      8.2520221      0              0              0              0.3915088    
     15300   1.0793937      0.39619079    -2.3185961     -0.748435      -0.014707341   -0.05011604     0.19756094    -0.19156693     0.1080743     -0.038369829   -0.054630056    8.2193871      8.2193871      8.2193871      0              0              0              0.39619079   
     15400   1.0904037      0.40063079    -2.3463062     -0.70489976     0.0050912499  -0.080250392   -0.023453635    0.11897778    -0.023834196   -0.085566102   -0.072647249    8.1889104      8.1889104      8.1889104      0              0              0              0.40063079   
     15500   1.0361795      0.40500792    -2.3207065     -0.11329662     0.24334053     0.26249197     0.16589712     0.30163249    -0.031561931    0.14779897     0.17789355     8.1593029      8.1593029      8.1593029      0              0              0              0.40500792   
     15600   1.0160272      0.40909942    -2.3642174     -0.95231307    -0.038870474   -0.0029558669  -0.13407719     0.02042163     0.064043635    0.042151594    0.024771511    8.1320106      8.1320106      8.1320106      0              0              0              0.40909942   
     15700   1.0336239      0.41343633    -2.4680488     -1.3016147     -0.14141387    -0.31087022     0.071223792   -0.18459519     0.19675809    -0.029469526    0.019126228    8.103476       8.103476       8.103476       0              0              0              0.41343633   
     15800   0.99523784     0.41806722    -2.4569415     -0.62387294     0.13213815    -0.081072683    0.30751479     0.16997233     0.092571743    0.039513279    0.055509105    8.0734443      8.0734443      8.0734443      0              0              0              0.41806722   
     15900   0.97878961     0.42227951    -2.4521414     -0.97817024     0.0050395944  -0.092650828    0.10956981    -0.0018002033   0.035143808   -0.26030791    -0.30070183     8.04651        8.04651        8.04651        0              0              0              0.42227951   
     16000   0.96613032     0.42654513    -2.4368319     -1.4903526     -0.19212766    -0.022238484   -0.1214106     -0.43273389    -0.089736489   -0.06184716    -0.118225       8.0195974      8.0195974      8.0195974      0              0              0              0.42654513   
     16100   0.96361402     0.43147942    -2.4448166     -1.3949695     -0.15233058    -0.073794112   -0.11686497    -0.26633267     0.10704574    -0.032842004    0.20389562     7.9889101      7.9889101      7.9889101      0              0              0              0.43147942   
     16200   1.0567934      0.43666864    -2.595142      -1.4061924     -0.15414978    -0.0010868385  -0.35199958    -0.10936291    -0.060790977    0.013244024   -0.074314687    7.957138       7.957138       7.957138       0              0              0              0.43666864   
     16300   1.0092797      0.44168948    -2.5497687     -0.67050548     0.14973808     0.25080096     0.053633066    0.14478022    -0.2216853     -0.062677256   -0.037263291    7.9268726      7.9268726      7.9268726      0              0              0              0.44168948   
     16400   0.99892309     0.4460051     -2.5700213     -0.70416276     0.15203334     0.21495453     0.08330139     0.15784411     0.0069183841  -0.081479119    0.062593295    7.9012224      7.9012224      7.9012224      0              0              0              0.4460051    
     16500   1.0440454      0.44979948    -2.6951276     -0.48439466     0.26681094     0.14048839     0.32214033     0.3378041      0.094986508   -0.053806272   -0.03712538     7.8789422      7.8789422      7.8789422      0              0              0              0.44979948   
     16600   0.97366741     0.45378826    -2.687811      -1.5958729     -0.14903253    -0.34352937    -0.072389649   -0.031178571   -0.21384341     0.19303088     0.21543308     7.855789       7.855789       7.855789       0              0              0              0.45378826   
     16700   0.97154946     0.45827462    -2.7599304     -1.620738      -0.12950224     0.030387303   -0.28165333    -0.13724071    -0.22027998     0.13195716     0.006009758    7.8300696      7.8300696      7.8300696      0              0              0              0.45827462   
     16800   0.94277387     0.46332153    -2.7660722     -1.7226509     -0.15317775    -0.040893322   -0.20720017    -0.21143976    -0.19837264     0.007105058    0.010851664    7.8015351      7.8015351      7.8015351      0              0              0              0.46332153   
     16900   0.95520487     0.468612      -2.7994079     -1.5875551     -0.091077068    0.22423194    -0.26619562    -0.23126753     0.13085591    -0.029402103    0.0075321631   7.772065       7.772065       7.772065       0              0              0              0.468612     
     17000   0.98955346     0.47375121    -2.8501833     -2.0015955     -0.27060701    -0.48978737    -0.059350638   -0.26268301     0.035266494   -0.17976176    -0.22082328     7.7438592      7.7438592      7.7438592      0              0              0              0.47375121   
     17100   1.0019302      0.47934189    -2.8683166     -1.1044958      0.11697685     0.080186435    0.084094864    0.18664925     0.073693523    0.0993188     -0.032740487    7.7136352      7.7136352      7.7136352      0              0              0              0.47934189   
     17200   0.98507367     0.48416396    -2.8330042     -1.2662981      0.042467201    0.046083203    0.23402601    -0.15270761    -0.21453947    -0.19084948    -0.022916735    7.6879416      7.6879416      7.6879416      0              0              0              0.48416396   
     17300   0.96954638     0.48833589    -2.7959962     -0.64196585     0.31385898     0.50062091     0.16104532     0.27991069    -0.02509139    -0.011903242    0.11467906     7.6659858      7.6659858      7.6659858      0              0              0              0.48833589   
     17400   1.0115815      0.4924955     -2.8521624     -1.0740282      0.12014601    -0.085634137    0.19733895     0.24873323     0.20127048     0.058155593    0.17657518     7.6443425      7.6443425      7.6443425      0              0              0              0.4924955    
     17500   0.96113804     0.49685692    -2.7732164     -1.4076916     -0.031154634    0.046505195   -0.034077997   -0.1058911     -0.017223828    0.19351765    -0.18699513     7.6219094      7.6219094      7.6219094      0              0              0              0.49685692   
     17600   0.94581097     0.50125005    -2.7420567     -1.0549571      0.12552974     0.09309446     0.21990174     0.063593017   -0.063680453   -0.047433086    0.0066877699   7.5995769      7.5995769      7.5995769      0              0              0              0.50125005   
     17700   1.0062473      0.50597903    -2.806281      -1.7390272     -0.19989407     0.08002086    -0.039144842   -0.64055822     0.020501662    0.11001101     0.23041525     7.5758271      7.5758271      7.5758271      0              0              0              0.50597903   
     17800   1.0242201      0.51144268    -2.7812012     -1.1755936      0.035781916   -0.14129787     0.054412792    0.19423082    -0.058754271    0.092395584   -0.047260414    7.5487534      7.5487534      7.5487534      0              0              0              0.51144268   
     17900   1.0359557      0.51661046    -2.7129712     -0.76363497     0.18934822     0.33773658     0.51302096    -0.28271287    -0.24045971    -0.36401614    -0.38180284     7.5234983      7.5234983      7.5234983      0              0              0              0.51661046   
     18000   1.1790411      0.52126863    -2.8474446     -1.0044385      0.039468236    0.22136916    -0.03021751    -0.072746943    0.018971219   -0.024453723    0.16465007     7.5010207      7.5010207      7.5010207      0              0              0              0.52126863   
     18100   1.1552287      0.52609054    -2.8110627     -0.45595345     0.30175139     0.63455271     0.053112337    0.21758912     0.0011182961   0.052070189   -0.16705895     7.4780333      7.4780333      7.4780333      0              0              0              0.52609054   
     18200   1.1216743      0.53061722    -2.8445119     -1.7085417     -0.25958217    -0.44769719    -0.34689162     0.0158423      0.13638723     0.016949845   -0.096348714    7.4567076      7.4567076      7.4567076      0              0              0              0.53061722   
     18300   1.1176818      0.53523049    -2.9637541     -1.5499957     -0.12377528    -0.10738373     0.21279346    -0.47673556    -0.13322215    -0.036681268    0.033740558    7.4352221      7.4352221      7.4352221      0              0              0              0.53523049   
     18400   1.0621174      0.5402202     -2.974463      -1.099386       0.14235626     0.43940299    -0.082263119    0.069928893   -0.090697017    0.23960831     0.10834907     7.4122596      7.4122596      7.4122596      0              0              0              0.5402202    
     18500   1.0567365      0.54502849    -3.031104      -1.8211092     -0.18193268    -0.33709343    -0.18817683    -0.020527791   -0.14260455     0.0098602745   0.052007896    7.390398       7.390398       7.390398       0              0              0              0.54502849   
     18600   1.0177528      0.54978586    -3.0371663     -0.7749254      0.37147771     0.44895713     0.23805105     0.42742495     0.13949808     0.059325997   -0.04835689     7.3690195      7.3690195      7.3690195      0              0              0              0.54978586   
     18700   1.0287061      0.55436847    -3.1198799     -1.7948587     -0.10599661    -0.29649645    -0.025274069    0.0037806853  -0.073241845    0.0057307108  -0.16209343     7.3486583      7.3486583      7.3486583      0              0              0              0.55436847   
     18800   0.95583065     0.55929551    -3.0686679     -2.271071      -0.31980538    -0.2136806     -0.33406514    -0.41167041    -0.11055594     0.1396208     -0.17462169     7.3270156      7.3270156      7.3270156      0              0              0              0.55929551   
     18900   0.95154772     0.56460838    -3.1023953     -1.714971      -0.016815443   -0.37182605     0.2894441      0.031935618    0.1745134      0.055071897    0.11973659     7.3039611      7.3039611      7.3039611      0              0              0              0.56460838   
     19000   0.94288341     0.57024383    -3.1094734     -2.2580777     -0.28815862    -0.32393579    -0.6153846      0.074844539   -0.11337037     0.118802      -0.13688209     7.2798209      7.2798209      7.2798209      0              0              0              0.57024383   
     19100   0.92755033     0.57603524    -3.0606749     -2.3617763     -0.3589591     -0.099579942   -0.32096659    -0.65633078     0.1190905     -0.0151697      0.15771943     7.2553418      7.2553418      7.2553418      0              0              0              0.57603524   
     19200   0.97826597     0.58189285    -3.0761192     -1.5660058      0.026476891    0.018391668   -0.078405978    0.13944498    -0.072076112    0.43642836    -0.22139217     7.2309144      7.2309144      7.2309144      0              0              0              0.58189285   
     19300   1.0662171      0.58738991    -3.1342281     -1.7484065     -0.10973907     0.12573065    -0.22486593    -0.23008193     0.27925861    -0.15711115     0.00041078704  7.2082869      7.2082869      7.2082869      0              0              0              0.58738991   
     19400   1.1261236      0.59243271    -3.1756819     -1.3668795      0.068971528    0.33164064     0.28772985    -0.4124559     -0.077829331    0.53942403    -0.21515261     7.1877763      7.1877763      7.1877763      0              0              0              0.59243271   
     19500   1.1056997      0.59708588    -3.1454045     -1.6274705     -0.071825551    0.019364917   -0.020673809   -0.21416776    -0.21787634    -0.043574907   -0.18818368     7.1690558      7.1690558      7.1690558      0              0              0              0.59708588   
     19600   1.1041572      0.6020021     -3.1804231     -1.3757017      0.085794504   -0.25555315     0.24442581     0.26851086     0.33486834     0.10422807    -0.11867931     7.1494872      7.1494872      7.1494872      0              0              0              0.6020021    
     19700   1.0199542      0.60665217    -3.1156644     -1.5071234      0.047572244    0.17131402    -0.23101177     0.20241448    -0.010972077   -0.05706326    -0.033266286    7.131173       7.131173       7.131173       0              0              0              0.60665217   
     19800   0.997696       0.6117426     -3.1415711     -2.5803699     -0.51601048    -0.070188237   -0.73271026    -0.74513294    -0.20558823    -0.56580073     0.236288       7.111338       7.111338       7.111338       0              0              0              0.6117426    
     19900   1.0288299      0.61809982    -3.2333059     -1.9059052     -0.11694889    -0.15024632    -0.01829094    -0.1823094      0.16297554     0.20106322     0.52670958     7.0868736      7.0868736      7.0868736      0              0              0              0.61809982   
     20000   1.0193518      0.62439911    -3.2563845     -1.7133576      0.012286081   -0.25450391     0.73412614    -0.44276399     0.10033124     0.10842931    -0.28216483     7.0629609      7.0629609      7.0629609      0              0              0              0.62439911   
     20100   1.0531634      0.63009184    -3.3437955     -1.7356733      0.020779213   -0.31677033     0.32112469     0.057983274   -0.26767117    -0.057859301    0.028561015    7.0416258      7.0416258      7.0416258      0              0              0              0.63009184   
     20200   1.0189985      0.63555325    -3.3447429     -1.3598474      0.26811115     0.11721979     0.20121424     0.48589942    -0.039438169   -0.042820859   -0.058307919    7.0213978      7.0213978      7.0213978      0              0              0              0.63555325   
     20300   1.0063151      0.64059856    -3.3796868     -1.8146201      0.036771161   -0.061269239    0.41759951    -0.24601679    -0.091229381    0.23458771     0.25603936     7.0029158      7.0029158      7.0029158      0              0              0              0.64059856   
     20400   1.0169124      0.64559206    -3.4430102     -1.9809365     -0.032671763   -0.14489599     0.17914079    -0.13226008     0.15271034    -0.010252269    0.010399623    6.9848138      6.9848138      6.9848138      0              0              0              0.64559206   
     20500   0.99738963     0.65097536    -3.4607738     -2.0983149     -0.07465216    -0.22388618    -0.1453746      0.14530431    -0.082730963   -0.067413391    0.061755105    6.9655066      6.9655066      6.9655066      0              0              0              0.65097536   
     20600   0.98296268     0.65640674    -3.4694481     -2.5277225     -0.31349165    -0.80869216    -0.0051316418  -0.12665116    -0.024822217    0.21480169     0.13624266     6.9462416      6.9462416      6.9462416      0              0              0              0.65640674   
     20700   1.0669478      0.6628123     -3.6320376     -2.361138      -0.193734      -0.42419274    -0.04788674    -0.10912251     0.0077382817  -0.12716499    -0.12026206     6.9237925      6.9237925      6.9237925      0              0              0              0.6628123    
     20800   1.0179439      0.66839037    -3.5839832     -1.7088484      0.21622636     0.27392261     0.14351087     0.23124561    -0.06803823    -0.17930615     0.14695318     6.9044777      6.9044777      6.9044777      0              0              0              0.66839037   
     20900   1.0117686      0.67285743    -3.611984      -2.1190484     -0.010477647    0.16117281    -0.18746172    -0.0051440354  -0.088776418    0.18515883     0.021992192    6.8891643      6.8891643      6.8891643      0              0              0              0.67285743   
     21000   0.98975168     0.67772589    -3.6343133     -2.3149763     -0.09726442    -0.030086446   -0.15341526    -0.10829156    -0.034567909   -0.39527793     0.25153774     6.8726285      6.8726285      6.8726285      0              0              0              0.67772589   
     21100   0.95608607     0.68300864    -3.6668078     -2.1415135      0.06105839    -0.099076366   -0.049241947    0.33149348     0.098267565    0.10560616    -0.031483691    6.8548638      6.8548638      6.8548638      0              0              0              0.68300864   
     21200   0.95063233     0.68825081    -3.7672308     -2.5503297     -0.12633635    -0.3656357      0.039871651   -0.053244995   -0.092419076   -0.22549847    -0.017530218    6.8374157      6.8374157      6.8374157      0              0              0              0.68825081   
     21300   0.91333773     0.69382607    -3.8026463     -2.8714819     -0.27247951    -0.53657534    -0.29531018     0.014446996    0.25856175     0.069619865   -0.26420799     6.8190523      6.8190523      6.8190523      0              0              0              0.69382607   
     21400   0.91747598     0.69958896    -3.8336936     -2.8698839     -0.25790873    -0.34709487    -0.11512209    -0.31150923    -0.19152347     0.014380064   -0.27833054     6.8002766      6.8002766      6.8002766      0              0              0              0.69958896   
     21500   0.92258252     0.70542809    -3.8269148     -2.7068353     -0.16473347     0.29966689    -0.39311199    -0.40075531     0.063617532   -0.40465814     0.13256077     6.7814616      6.7814616      6.7814616      0              0              0              0.70542809   
     21600   0.88704679     0.71145181    -3.7431237     -2.2777561      0.091486422    0.26854856     0.34584156    -0.33993086    -0.025375067    0.047878884    0.26480223     6.7622683      6.7622683      6.7622683      0              0              0              0.71145181   
     21700   0.94142697     0.71713439    -3.7746516     -2.3094711      0.03918208    -0.26375565     0.3019363      0.079365591   -0.60164755     0.073288477   -0.2622942      6.7443595      6.7443595      6.7443595      0              0              0              0.71713439   
     21800   0.95375303     0.72258238    -3.7449905     -1.9738251      0.22839452     0.46939262    -0.057952963    0.27374389     0.32497289    -0.092669492   -0.33972565     6.7273667      6.7273667      6.7273667      0              0              0              0.72258238   
     21900   1.0428026      0.72771596    -3.8455216     -1.8813415      0.26978232     0.37779799     0.080662493    0.35088647    -0.095815392   -0.17454468    -0.10610407     6.7115103      6.7115103      6.7115103      0              0              0              0.72771596   
     22000   1.0558412      0.73186234    -3.8474183     -2.1926905      0.052484364    0.12302918    -0.12288657     0.15731048    -0.030036278    0.090613347   -0.17704928     6.6988115      6.6988115      6.6988115      0              0              0              0.73186234   
     22100   1.007317       0.7363231     -3.780404      -1.3763776      0.60285162     0.48903        0.51724839     0.80227647     0.051441817   -0.27644545    -0.25437169     6.6852566      6.6852566      6.6852566      0              0              0              0.7363231    
     22200   0.96463924     0.73985933    -3.7196336     -0.96232568     0.88620606     0.88717016     0.61279771     1.1586503      0.10740454     0.18998116     0.092294649    6.6745887      6.6745887      6.6745887      0              0              0              0.73985933   
     22300   1.0854213      0.74285414    -3.9158416     -2.4130906     -0.079174963   -0.26627958    -0.17787426     0.20662895    -0.42133905     0.034386273    0.51708073     6.6656071      6.6656071      6.6656071      0              0              0              0.74285414   
     22400   0.96635281     0.747198      -3.8067046     -1.7522802      0.41581081     0.30830657     0.53934282     0.39978304     0.10640376    -0.45029336    -0.33971527     6.6526651      6.6526651      6.6526651      0              0              0              0.747198     
     22500   1.0167012      0.75144839    -3.9855598     -2.3135063      0.10563104     0.067173369    0.52418248    -0.27446274     0.11546847     0.13778507     0.0095845763   6.6400983      6.6400983      6.6400983      0              0              0              0.75144839   
     22600   0.94852436     0.75597584    -3.9717238     -2.6879413     -0.090641588   -0.20143077     0.3179057     -0.38839969     0.23812701     0.52094639    -0.24790401     6.6268161      6.6268161      6.6268161      0              0              0              0.75597584   
     22700   0.97958108     0.76098753    -4.0535886     -2.6429276     -0.035533744    0.033061172    0.3197304     -0.4593928      0.19516149    -0.075789754   -0.14873924     6.6122365      6.6122365      6.6122365      0              0              0              0.76098753   
     22800   0.97972323     0.76592085    -4.0599485     -2.6610159     -0.044078301   -0.12054649     0.30286193    -0.31455033     0.055867552    0.049995167    0.025206511    6.5980094      6.5980094      6.5980094      0              0              0              0.76592085   
     22900   1.0152214      0.7712513     -4.1114084     -2.3290949      0.18727065    -0.024678262    0.6343127     -0.047822494    0.45782308     0.024342387   -0.071198091    6.5827737      6.5827737      6.5827737      0              0              0              0.7712513    
     23000   0.97021544     0.77651708    -4.0329738     -1.9859094      0.42286145     1.1489895      0.17146976    -0.051874915    0.0075199339   0.19429084    -0.53644771     6.56786        6.56786        6.56786        0              0              0              0.77651708   
     23100   1.0752414      0.78097969    -4.1707009     -2.9722007     -0.28846378    -0.4081155      0.18116147    -0.63843729     0.35389527     0.10827639     0.47574945     6.5553263      6.5553263      6.5553263      0              0              0              0.78097969   
     23200   1.022087       0.78554147    -4.0911455     -1.5835733      0.70135094     0.56474767     0.71410241     0.82520272     0.24319213    -0.14221696     0.21392041     6.5426123      6.5426123      6.5426123      0              0              0              0.78554147   
     23300   1.1099612      0.78862738    -4.245709      -2.1810794      0.292518       0.77725497    -0.011859487    0.11215852     0.20088807     0.61663189    -0.25614741     6.5340674      6.5340674      6.5340674      0              0              0              0.78862738   
     23400   0.92298775     0.79166349    -4.0400416     -2.0740066      0.42352256     0.916946       0.33115406     0.022467628    0.055835082   -0.33270178    -0.38232068     6.5257038      6.5257038      6.5257038      0              0              0              0.79166349   
     23500   0.89206018     0.79491808    -4.0991188     -1.9630537      0.58149367     0.17247277     0.91471857     0.65728967     0.13809815     0.047763615   -0.24151581     6.5167856      6.5167856      6.5167856      0              0              0              0.79491808   
     23600   0.94968237     0.79784845    -4.2504631     -2.2707808      0.40783209     1.0202592     -0.13945067     0.34268772     0.078005209    0.092415183    0.063305463    6.5087975      6.5087975      6.5087975      0              0              0              0.79784845   
     23700   0.92304968     0.80083351    -4.2286637     -1.8273954      0.74522409     0.85203218     0.56886785     0.81477225     0.13281032    -0.041394127    0.38120111     6.5007003      6.5007003      6.5007003      0              0              0              0.80083351   
     23800   1.014065       0.80367378    -4.3492245     -2.0164106      0.5986068      0.967919       0.54342168     0.28447971     0.10599337    -0.20950127    -0.30028696     6.4930333      6.4930333      6.4930333      0              0              0              0.80367378   
     23900   0.94546045     0.8067288     -4.2132882     -1.4588324      0.98520365     1.3189995      0.44080463     1.1958068     -0.10665857    -0.2265682      0.091175919    6.4848267      6.4848267      6.4848267      0              0              0              0.8067288    
     24000   1.0335242      0.80859028    -4.2996832     -2.4630262      0.21620396     0.21532576     0.17186292     0.2614232     -0.26249202    -0.062527944   -0.18230707     6.4798465      6.4798465      6.4798465      0              0              0              0.80859028   
     24100   1.0119684      0.81090647    -4.2212671     -1.2806566      1.0543609      0.93563401     0.94392951     1.2835193      0.02549609     0.29512052    -0.34142697     6.4736712      6.4736712      6.4736712      0              0              0              0.81090647   
     24200   1.1018757      0.81300391    -4.3222963     -1.8370426      0.62135983     0.86091744     0.24822966     0.75493239    -0.16965577     0.033321697   -0.087468325    6.4680994      6.4680994      6.4680994      0              0              0              0.81300391   
     24300   1.0309172      0.81558043    -4.2058812     -1.7257221      0.69807402     0.71868626     0.53584088     0.83969493    -0.20278486    -0.044419967   -0.11037116     6.461281       6.461281       6.461281       0              0              0              0.81558043   
     24400   1.0326259      0.81728726    -4.252785      -1.2211232      1.1074002      1.5021592      1.0917557      0.72828555     0.014132401   -0.082180555    0.08135117     6.4567799      6.4567799      6.4567799      0              0              0              0.81728726   
     24500   0.96060173     0.81822823    -4.2679324     -1.3413504      1.1104725      1.0786401      0.85856309     1.3942144     -0.30790362    -0.020692198    0.4742687      6.4543039      6.4543039      6.4543039      0              0              0              0.81822823   
     24600   0.96458586     0.81921645    -4.3855285     -2.0756342      0.64811183     1.0018699      0.72491249     0.21755309    -0.31837958     0.63837094    -0.23413218     6.4517075      6.4517075      6.4517075      0              0              0              0.81921645   
     24700   0.91769543     0.82116204    -4.3641692     -2.5704123      0.31659266     0.60138354     0.20169934     0.14669508    -0.042589148   -0.043078476    0.12649154     6.4466081      6.4466081      6.4466081      0              0              0              0.82116204   
     24800   0.91242444     0.82473531    -4.3671477     -2.7189316      0.21474803     0.084213682    0.95135536    -0.39132494    -0.16121757    -0.27388617     0.033378659    6.4372844      6.4372844      6.4372844      0              0              0              0.82473531   
     24900   0.92812974     0.82887637    -4.3804567     -2.0389033      0.72060983     0.9884395      0.6386557      0.5347343     -0.35671259    -0.18582087     0.24129501     6.4265463      6.4265463      6.4265463      0              0              0              0.82887637   
     25000   1.0525022      0.83183019    -4.5360385     -2.0791738      0.67000525     0.21888426     1.148558       0.64257352    -0.56866063     0.032183651    0.3756765      6.4189304      6.4189304      6.4189304      0              0              0              0.83183019   
     25100   1.0090549      0.83350676    -4.4291287     -1.2946121      1.2339706      0.99661919     1.1151415      1.5901511      0.091576167    0.032830828   -0.038370232    6.4146237      6.4146237      6.4146237      0              0              0              0.83350676   
     25200   1.0568836      0.83358765    -4.4414947     -1.6103583      0.9500911      0.34213938     1.0803347      1.4277992      0.12924585     0.19278601     0.18922363     6.4144162      6.4144162      6.4144162      0              0              0              0.83358765   
     25300   0.97176259     0.83372653    -4.2640714     -1.2926955      1.1528317      1.0722206      1.0925416      1.293733      -0.15990804    -0.0970547      0.22585805     6.41406        6.41406        6.41406        0              0              0              0.83372653   
     25400   1.0804628      0.83388855    -4.3910641     -2.4171714      0.27389602     0.3244214      0.10258443     0.39468224    -0.011039541   -0.65815084    -0.25890569     6.4136446      6.4136446      6.4136446      0              0              0              0.83388855   
     25500   1.0915017      0.83495499    -4.4143658     -1.3546914      1.0859031      1.3419667      0.97051704     0.94522574    -0.23284172     0.22553491    -0.16991271     6.4109128      6.4109128      6.4109128      0              0              0              0.83495499   
     25600   1.017615       0.83502827    -4.3631376     -1.7856616      0.80366576     1.1905619      0.46063886     0.75979656     0.074886421    0.13431573     0.17989691     6.4107253      6.4107253      6.4107253      0              0              0              0.83502827   
     25700   0.96703838     0.83500274    -4.3879218     -1.6719727      0.96605588     0.99524739     0.93958073     0.96333952    -0.095113955   -0.11682627     0.42412236     6.4107906      6.4107906      6.4107906      0              0              0              0.83500274   
     25800   0.91416366     0.83554843    -4.4068633     -2.2529229      0.59973473     0.19536066     0.82185177     0.78199174     0.34548561     0.58002877     0.25738728     6.4093947      6.4093947      6.4093947      0              0              0              0.83554843   
     25900   0.92023353     0.83720669    -4.4541981     -1.8570653      0.93134244     0.86782179     0.62231069     1.3038948     -0.25332443     0.47820971     0.37386595     6.4051602      6.4051602      6.4051602      0              0              0              0.83720669   
     26000   0.98110904     0.83857102    -4.5395793     -2.6590801      0.3172801      0.57365526     0.27008403     0.10810101     0.28359211     0.23639446    -0.47235539     6.4016847      6.4016847      6.4016847      0              0              0              0.83857102   
     26100   0.9856665      0.84081283    -4.5266563     -2.3589595      0.53245585     0.94465441    -0.39991554     1.0526287     -0.19670369    -0.1304435     -0.10526563     6.3959901      6.3959901      6.3959901      0              0              0              0.84081283   
     26200   0.97951744     0.84308284    -4.478028      -1.8565125      0.88875169     0.74601176     0.88505787     1.0351854      0.15882562    -0.17894518     0.16432807     6.3902445      6.3902445      6.3902445      0              0              0              0.84308284   
     26300   0.97545387     0.84462894    -4.430468      -1.5925418      1.0612081      0.92272242     1.3951837      0.86571827    -0.049278628   -0.26792946    -0.073591718    6.386343       6.386343       6.386343       0              0              0              0.84462894   
     26400   0.99181152     0.84552129    -4.4230941     -1.7964691      0.8811457      0.73102838     0.83730983     1.0750989     -0.24316142     0.24572122     0.34395255     6.3840955      6.3840955      6.3840955      0              0              0              0.84552129   
     26500   1.0408915      0.84591321    -4.4786111     -1.7783613      0.88184082     0.60874178     1.1729821      0.86379859     0.20976289     0.0052161945   0.40694958     6.3831095      6.3831095      6.3831095      0              0              0              0.84591321   
     26600   1.0190564      0.84630299    -4.4414711     -1.6911829      0.94581788     1.6462718      0.027160027    1.1640218     -0.37975614     0.27193896    -0.50543476     6.3821294      6.3821294      6.3821294      0              0              0              0.84630299   
     26700   0.99021374     0.84596005    -4.4004367     -0.97196787     1.5000985      0.55412936     1.3343511      2.6118152     -0.064870477    0.14556278     0.17619234     6.3829916      6.3829916      6.3829916      0              0              0              0.84596005   
     26800   0.96478197     0.84462379    -4.3670141     -1.4118354      1.1634628      1.0863626      1.0442416      1.3597842     -0.53400629    -0.040344098    0.18197173     6.386356       6.386356       6.386356       0              0              0              0.84462379   
     26900   0.99874488     0.84389044    -4.4332226     -0.84734234     1.6074222      1.7022144      1.715607       1.4044452     -0.0088764976   0.045301432    0.24134578     6.3882054      6.3882054      6.3882054      0              0              0              0.84389044   
     27000   1.0089749      0.84214299    -4.4795158     -2.3226022      0.49840977     0.71121842     0.25046918     0.53354172    -0.14645874    -0.26436186    -0.0003354373   6.3926209      6.3926209      6.3926209      0              0              0              0.84214299   
     27100   0.95778341     0.84194204    -4.4395525     -1.6240658      1.0608431      1.6690974      0.64693687     0.86649491    -0.41542989    -0.026816471    0.20669398     6.3931294      6.3931294      6.3931294      0              0              0              0.84194204   
     27200   0.99821534     0.84273158    -4.5354559     -2.4068263      0.48939198    -0.057902333    0.73977689     0.78630137     0.17520558    -0.60382363    -0.020967574    6.3911322      6.3911322      6.3911322      0              0              0              0.84273158   
     27300   0.92313521     0.84453985    -4.4534538     -2.1162743      0.73659245     0.15918266     0.28094378     1.7696509     -0.17503866    -0.058600323    0.47862397     6.3865676      6.3865676      6.3865676      0              0              0              0.84453985   
     27400   0.90961294     0.84633514    -4.4379963     -1.887479       0.91782735     1.0183003      0.19742461     1.5377571      0.25737591    -0.042146702    0.15315244     6.3820485      6.3820485      6.3820485      0              0              0              0.84633514   
     27500   0.96801137     0.84740125    -4.505719      -2.223225       0.64536311     0.81168129     0.96601591     0.15839214     0.10428213     0.11384916     0.0077095402   6.379371       6.379371       6.379371       0              0              0              0.84740125   
     27600   1.0047819      0.8488585     -4.5127815     -1.9625106      0.81076322     0.73047542     0.61507172     1.0867425      0.14659654    -0.29216482    -0.31382461     6.3757184      6.3757184      6.3757184      0              0              0              0.8488585    
[...]
    136000   0.09384031     0.26853936    -3.3023541     -5.2397911     -0.50717166    -1.1993594     -0.067249222   -0.25490632    -0.05528308    -0.028444617   -0.016642101    23.168535      5.9464542      5.9464542      0              0              0              0.26853936   
    137000   0.098290125    0.26586735    -3.232808      -5.5252286     -0.58952908    -1.2585733     -0.18050501    -0.32950892     0.0053646607   0.012401249    0.037850104    23.401383      5.9464542      5.9464542      0              0              0              0.26586735   
    138000   0.11332699     0.26322192    -3.2018669     -5.2945926     -0.54124799    -1.3197986     -0.068855718   -0.2350897      0.009318798   -0.039771192    0.013396591    23.636571      5.9464542      5.9464542      0              0              0              0.26322192   
    139000   0.099379013    0.26060282    -3.2039542     -5.3851081     -0.55188028    -1.2855606     -0.10780184    -0.26227844    -0.010353775   -0.00066629357 -0.032695126    23.874122      5.9464542      5.9464542      0              0              0              0.26060282   
    140000   0.10522679     0.25800978    -3.1399507     -5.4998118     -0.59035268    -1.4080285     -0.13580896    -0.2272206     -0.032227288   -0.04624298     0.0354653      24.114061      5.9464542      5.9464542      0              0              0              0.25800978   
    141000   0.10086049     0.25544254    -3.1117276     -5.571229      -0.60610376    -1.4189152     -0.13483374    -0.2645623     -0.10573486    -0.064149047    0.0054482365   24.356411      5.9464542      5.9464542      0              0              0              0.25544254   
    142000   0.096096238    0.25290084    -3.0891019     -5.6859164     -0.63000776    -1.4774968     -0.14367705    -0.26884945    -0.051084397   -0.019619336    0.052426485    24.601197      5.9464542      5.9464542      0              0              0              0.25290084   
    143000   0.100422       0.25038444    -3.0587086     -5.4870116     -0.58685168    -1.3983188     -0.16620064    -0.19603563    -0.079522493   -0.0010122779  -0.031363085    24.848443      5.9464542      5.9464542      0              0              0              0.25038444   
    144000   0.10163318     0.24789307    -3.057937      -5.1654667     -0.50913118    -1.1894169     -0.072930932   -0.26504571    -0.044852993   -0.027532483    0.038986858    25.098174      5.9464542      5.9464542      0              0              0              0.24789307   
    145000   0.10279579     0.24542649    -3.0886062     -5.4127215     -0.5527759     -1.2169627     -0.15289423    -0.28847072    -0.038923002    0.047095045    0.046970621    25.350415      5.9464542      5.9464542      0              0              0              0.24542649   
    146000   0.099732949    0.24298446    -3.0651474     -4.9323936     -0.44534581    -1.1436056     -0.073590777   -0.11884104    -0.10103476    -0.00059962373  0.017655741    25.605191      5.9464542      5.9464542      0              0              0              0.24298446   
    147000   0.10800607     0.24056672    -3.0581483     -5.2658349     -0.51806824    -1.2604666     -0.079949106   -0.21378905    -0.050013187    0.00075784057  0.0020173294   25.862528      5.9464542      5.9464542      0              0              0              0.24056672   
    148000   0.1018077      0.23817305    -3.0570397     -5.5255354     -0.56738096    -1.3415669     -0.13133876    -0.2292372     -0.082645515    0.041917343    0.011666867    26.12245       5.9464542      5.9464542      0              0              0              0.23817305   
    149000   0.10095705     0.23580318    -3.0351713     -5.4916726     -0.55889208    -1.3739973     -0.073949657   -0.2287293     -0.040296293    0.053776434    0.012792012    26.384985      5.9464542      5.9464542      0              0              0              0.23580318   
    150000   0.090899825    0.2334569     -2.9795652     -5.3706475     -0.53626117    -1.3556208     -0.11290952    -0.14025317    -0.064085154    0.070176596    0.03372396     26.650159      5.9464542      5.9464542      0              0              0              0.2334569    
    151000   0.1049784      0.23113397    -2.9074739     -5.6196614     -0.60281163    -1.5118922     -0.13064799    -0.16589472    -0.026285156    0.06344358     0.015082244    26.917997      5.9464542      5.9464542      0              0              0              0.23113397   
    152000   0.097128556    0.22883415    -2.8466065     -5.4844692     -0.57891441    -1.5535994     -0.049112267   -0.13403155    -0.1217353      0.096775017    0.03350834     27.188528      5.9464542      5.9464542      0              0              0              0.22883415   
    153000   0.10357559     0.22655721    -2.7832378     -5.6475272     -0.62177101    -1.5738807     -0.12396713    -0.16746523    -0.077588939    0.084944517   -0.055557732    27.461777      5.9464542      5.9464542      0              0              0              0.22655721   
    154000   0.10618756     0.22430293    -2.7863197     -5.9740789     -0.68233851    -1.6573459     -0.16802257    -0.2216471     -0.034719886    0.055586286    0.0049395487   27.737772      5.9464542      5.9464542      0              0              0              0.22430293   
    155000   0.10179545     0.22207108    -2.7326918     -6.0704657     -0.70451114    -1.7153945     -0.15036906    -0.24776988    -0.080886035    0.11813674    -0.0054393437   28.016542      5.9464542      5.9464542      0              0              0              0.22207108   
    156000   0.1044871      0.21986143    -2.6747526     -5.9728808     -0.69037993    -1.7586038     -0.11434348    -0.19819248    -0.089666398    0.10576117    -0.027217904    28.298113      5.9464542      5.9464542      0              0              0              0.21986143   
    157000   0.10520961     0.21767377    -2.6280367     -5.9985389     -0.69804565    -1.822709      -0.08294014    -0.18848784    -0.061132182    0.088239905   -0.001306038    28.582513      5.9464542      5.9464542      0              0              0              0.21767377   
    158000   0.11027955     0.21550788    -2.614473      -6.2806908     -0.75051797    -1.7833684     -0.21308097    -0.25510457    -0.046611672    0.092588845    0.019195546    28.869772      5.9464542      5.9464542      0              0              0              0.21550788   
    159000   0.094249821    0.21336354    -2.6384099     -5.6914258     -0.6194688     -1.6968218     -0.072630987   -0.088953601    0.0087727869   0.12343425     0.0039687947   29.159918      5.9464542      5.9464542      0              0              0              0.21336354   
    160000   0.085674591    0.21124054    -2.5939924     -6.0142737     -0.6813757     -1.7369202     -0.11534174    -0.19186516     0.0023056737   0.095040885    0.0051124423   29.452981      5.9464542      5.9464542      0              0              0              0.21124054   
    161000   0.09886942     0.20913866    -2.5692927     -5.7651704     -0.63567514    -1.6404654     -0.13428507    -0.13227497    -0.031431882    0.090905646   -0.015705226    29.748988      5.9464542      5.9464542      0              0              0              0.20913866   
    162000   0.10796405     0.2070577     -2.5759155     -5.8181148     -0.64062442    -1.6690332     -0.099834691   -0.15300532    -0.036044161    0.10752353     0.035400185    30.04797       5.9464542      5.9464542      0              0              0              0.2070577    
    163000   0.10378989     0.20499744    -2.5474284     -6.0513664     -0.68186702    -1.7251237     -0.13685337    -0.18362396    -0.047154091    0.13406569     0.0027579206   30.349957      5.9464542      5.9464542      0              0              0              0.20499744   
    164000   0.10505264     0.20295768    -2.5297584     -6.189835      -0.70423874    -1.8000667     -0.1491106     -0.16353898     0.012153737    0.19197756    -0.0076152761   30.654979      5.9464542      5.9464542      0              0              0              0.20295768   
    165000   0.10049241     0.20093822    -2.4938554     -6.2356157     -0.71090941    -1.811974      -0.14524832    -0.17550586     0.026151159    0.14793173     0.002029772    30.963067      5.9464542      5.9464542      0              0              0              0.20093822   
    166000   0.10154898     0.19893885    -2.4284904     -6.2960243     -0.72686753    -1.9361982     -0.080715529   -0.16368886    -0.0016246236   0.16341716     0.0054631454   31.274251      5.9464542      5.9464542      0              0              0              0.19893885   
    167000   0.1003617      0.19695938    -2.3570229     -6.3744361     -0.74615427    -1.9202172     -0.1680113     -0.15023427     0.0057706129   0.18694426     0.0278591      31.588563      5.9464542      5.9464542      0              0              0              0.19695938   
    168000   0.10015944     0.1949996     -2.2735182     -6.4604731     -0.76873146    -1.9697987     -0.14301234    -0.19338331    -0.030786359    0.18007554     0.032464764    31.906033      5.9464542      5.9464542      0              0              0              0.1949996    
    169000   0.17619688     0.19305932    -2.7625656     -4.3586638     -0.32628289    -0.847196      -0.11015202    -0.02150065     0.026395805   -0.012508813   -0.0024483388   32.226694      5.9464542      5.9464542      0              0              0              0.19305932   
    170000   0.10415853     0.19113835    -2.9291558     -4.2939111     -0.26415526    -0.64816151    -0.086139791   -0.058164483    0.043564065   -0.053971209   -0.0023490061   32.550578      5.9464542      5.9464542      0              0              0              0.19113835   
    171000   0.10840201     0.18923649    -2.9535944     -4.4941597     -0.29286157    -0.65385541    -0.1448765     -0.079852802    0.044685307   -0.025455077   -0.010170667    32.877716      5.9464542      5.9464542      0              0              0              0.18923649   
    172000   0.10213953     0.18735355    -2.8835362     -4.885492      -0.3669403     -0.82623506    -0.15238179    -0.12220404     0.042264371   -0.040954095   -0.0022193713   33.208143      5.9464542      5.9464542      0              0              0              0.18735355   
    173000   0.094411432    0.18548935    -2.8860317     -4.6472125     -0.32074311    -0.79545879    -0.093677188   -0.073093341    0.037486242   -0.036979559   -0.0080830599   33.54189       5.9464542      5.9464542      0              0              0              0.18548935   
    174000   0.10502139     0.1836437     -2.9135408     -4.8137764     -0.3434104     -0.80391469    -0.1407883     -0.085528216   -0.0010816876  -0.0019611724   0.012586954    33.878992      5.9464542      5.9464542      0              0              0              0.1836437    
    175000   0.097436414    0.18181642    -2.8638346     -4.9779917     -0.37348083    -0.86225593    -0.17325245    -0.08493411     0.022848179   -0.081689587    0.012702449    34.219481      5.9464542      5.9464542      0              0              0              0.18181642   
    176000   0.097832327    0.18000732    -2.8361187     -4.8249212     -0.34934792    -0.87779095    -0.10090552    -0.069347296    0.040578313   -0.044193841    0.00074882288  34.563393      5.9464542      5.9464542      0              0              0              0.18000732   
    177000   0.10495178     0.17821621    -2.7440888     -5.3257577     -0.44364649    -1.0457218     -0.16531779    -0.11989986     0.012675389   -0.054195242    0.00070080764  34.910761      5.9464542      5.9464542      0              0              0              0.17821621   
    178000   0.094558888    0.17644293    -2.6943653     -5.412215      -0.45858782    -1.1257392     -0.13758683    -0.11243748     0.064140291   -0.039796398   -0.033726163    35.26162       5.9464542      5.9464542      0              0              0              0.17644293   
    179000   0.10699465     0.1746873     -2.6661676     -5.3495904     -0.4515051     -1.114638      -0.14349599    -0.096381327    0.046026173   -0.067533256   -0.014340153    35.616005      5.9464542      5.9464542      0              0              0              0.1746873    
    180000   0.096840893    0.17294913    -2.6352264     -5.4842499     -0.47066666    -1.2196038     -0.14658479    -0.045811346    0.065101389   -0.054092659    0.0097680858   35.973952      5.9464542      5.9464542      0              0              0              0.17294913   
    181000   0.097913863    0.17122826    -2.5887795     -5.9218497     -0.54158044    -1.3340682     -0.18810168    -0.10257142     0.056848987   -0.031489216    0.0032904159   36.335496      5.9464542      5.9464542      0              0              0              0.17122826   
    182000   0.10450144     0.16952451    -2.4862692     -5.6236806     -0.50755326    -1.4155618     -0.083223836   -0.023874124    0.036442538   -0.090274255    0.010633933    36.700674      5.9464542      5.9464542      0              0              0              0.16952451   
    183000   0.11257055     0.16783771    -2.4044817     -5.8780752     -0.55563513    -1.4679403     -0.13295534    -0.066009707    0.057645373   -0.039910904   -0.047603863    37.069522      5.9464542      5.9464542      0              0              0              0.16783771   
    184000   0.17354703     0.1661677     -2.9669031     -3.4207427     -0.10768551    -0.22723464    -0.059892159   -0.035929747    0.022035343   -0.026413224    0.0021700523   37.442076      5.9464542      5.9464542      0              0              0              0.1661677    
    185000   0.094245064    0.1645143     -3.1537384     -3.168155      -0.023193127   -0.016476075   -0.067727847    0.01462454     0.011918476   -0.018837316    0.0099087106   37.818376      5.9464542      5.9464542      0              0              0              0.1645143    
    186000   0.10499252     0.16287735    -3.2359673     -3.5008743     -0.062427694   -0.05770484    -0.075259842   -0.0543184      0.014338309   -0.0088252899  -0.0039245913   38.198457      5.9464542      5.9464542      0              0              0              0.16287735   
    187000   0.10754857     0.1612567     -3.3035099     -3.4324814     -0.042438034   -0.031123115   -0.068549713   -0.027641273   -0.033447903   -0.0021366134  -0.018010902    38.582357      5.9464542      5.9464542      0              0              0              0.1612567    
    188000   0.10120261     0.15965217    -3.3757435     -3.2576216     -0.0047783878   0.0094337233  -0.037433351    0.013664464   -0.0028539629  -0.0070692396   0.0010916726   38.970117      5.9464542      5.9464542      0              0              0              0.15965217   
    189000   0.1083973      0.1580636     -3.475077      -3.645256      -0.047701009    0.022917928   -0.094037499   -0.071983455   -0.024521401   -0.019278663   -0.0064913266   39.361773      5.9464542      5.9464542      0              0              0              0.1580636    
    190000   0.091602485    0.15649084    -3.5928536     -3.7540978     -0.04238923    -0.0049227085  -0.064062157   -0.058182825   -0.052819572   -0.0011109586  -0.032375456    39.757365      5.9464542      5.9464542      0              0              0              0.15649084   
    191000   0.10138257     0.15493373    -3.6355371     -4.2345952     -0.10568898    -0.11823754    -0.093945185   -0.10488421    -0.0072534714  -0.00093911213  0.0084239303   40.156933      5.9464542      5.9464542      0              0              0              0.15493373   
    192000   0.097084733    0.15339212    -3.7133043     -3.6322461     -0.0089024226   0.051600911   -0.062743089   -0.01556509     0.028792037   -0.029286403   -0.0017522603   40.560517      5.9464542      5.9464542      0              0              0              0.15339212   
    193000   0.10786218     0.15186584    -3.7222656     -4.058817      -0.068689693   -0.05291319    -0.11751625    -0.03563964    -0.0073546018   0.019047002   -0.020703485    40.968157      5.9464542      5.9464542      0              0              0              0.15186584   
    194000   0.098933203    0.15035475    -3.7665782     -3.9616458     -0.046845817   -0.013445519   -0.081186228   -0.045905703   -0.011702499    0.022884628   -0.010777325    41.379894      5.9464542      5.9464542      0              0              0              0.15035475   
    195000   0.10937812     0.14885869    -3.7954912     -4.2789891     -0.087521443   -0.10246048    -0.12463405    -0.035469792    0.024345391    0.0031355424  -0.016589896    41.795769      5.9464542      5.9464542      0              0              0              0.14885869   
    196000   0.09804943     0.14737753    -3.8824455     -4.2951515     -0.074900573   -0.087867484   -0.089660732   -0.047173503   -0.0186399     -0.028900534   -0.024695023    42.215823      5.9464542      5.9464542      0              0              0              0.14737753   
    197000   0.10424045     0.14591109    -3.9185882     -3.8874388     -0.016505128    0.029782489   -0.062345889   -0.016951985   -0.025370222    0.0053356255   0.0081931759   42.640099      5.9464542      5.9464542      0              0              0              0.14591109   
    198000   0.10310998     0.14445925    -3.9659939     -4.3450724     -0.069993149   -0.032053488   -0.1060659     -0.071860063   -0.01344198    -0.00050455683 -0.0086559752   43.06864       5.9464542      5.9464542      0              0              0              0.14445925   
    199000   0.095047724    0.14302186    -4.0354226     -4.3247686     -0.056065181   -0.012543536   -0.057404291   -0.098247716   -0.015076501   -0.0045397043  -0.0015858605   43.501487      5.9464542      5.9464542      0              0              0              0.14302186   
    200000   0.098429512    0.14159877    -4.0942374     -4.0886619     -0.018192935    0.067429895   -0.068008987   -0.053999715    0.0060812132   0.01561066     0.027388447    43.938684      5.9464542      5.9464542      0              0              0              0.14159877   
Loop time of 38.1128 on 1 procs for 200000 steps with 200 atoms

Performance: 906782.521 tau/day, 5247.584 timesteps/s
49.9% CPU use with 1 MPI tasks x 1 OpenMP threads

MPI task timing breakdown:
Section |  min time  |  avg time  |  max time  |%varavg| %total
---------------------------------------------------------------
Pair    | 26.324     | 26.324     | 26.324     |   0.0 | 69.07
Bond    | 0.82579    | 0.82579    | 0.82579    |   0.0 |  2.17
Neigh   | 0.30769    | 0.30769    | 0.30769    |   0.0 |  0.81
Comm    | 1.5543     | 1.5543     | 1.5543     |   0.0 |  4.08
Output  | 1.4697     | 1.4697     | 1.4697     |   0.0 |  3.86
Modify  | 6.9452     | 6.9452     | 6.9452     |   0.0 | 18.22
Other   |            | 0.6864     |            |       |  1.80

Nlocal:            200 ave         200 max         200 min
Histogram: 1 0 0 0 0 0 0 0 0 0
Nghost:            732 ave         732 max         732 min
Histogram: 1 0 0 0 0 0 0 0 0 0
Neighs:           7954 ave        7954 max        7954 min
Histogram: 1 0 0 0 0 0 0 0 0 0

Total # of neighbors = 7954
Ave neighs/atom = 39.77
Ave special neighs/atom = 7.96
Neighbor list builds = 527
Dangerous builds = 0
System init for write_data ...
Generated 0 of 1 mixed pair_coeff terms from geometric mixing rule
WARNING: Not all mixed pair coeffs generated from mixing. Use write_data with 'pair ij' option to store all pair coeffs. (src/write_data.cpp:309)
Total wall time: 0:00:38
0.76875
