ITEM: TIMESTEP
0
ITEM: NUMBER OF ATOMS
200
ITEM: BOX BOUNDS pp pp pp
9.7026772895079233e+01 1.0297322710492077e+02
9.7026772895079233e+01 1.0297322710492077e+02
9.7026772895079233e+01 1.0297322710492077e+02
ITEM: ATOMS id mol type x y z
1 1 1 99.8854 101.147 98.5325
2 1 1 101.066 100.815 98.8036
3 2 1 97.4031 101.22 102.701
4 2 1 102.432 100.899 102.188
5 3 1 99.289 101.329 99.3785
6 3 1 98.8064 101.198 98.3831
7 4 1 97.3442 101.547 99.6904
8 4 1 97.47 100.766 98.8023
9 5 1 97.1248 98.8624 100.553
10 5 1 97.6126 99.241 101.577
11 6 1 98.1792 97.3395 97.5733
12 6 1 98.4352 102.706 98.6255
13 7 1 100.167 98.7042 97.1708
14 7 1 99.6047 97.6188 97.1315
15 8 1 101.269 99.5333 101.515
16 8 1 100.486 100.296 101.954
17 9 1 98.6985 101.186 101.542
18 9 1 99.3703 100.548 102.29
19 10 1 99.6864 102.566 101.116
20 10 1 98.6716 102.638 100.512
21 11 1 101.318 98.5625 98.6252
22 11 1 100.356 97.893 98.864
23 12 1 102.873 99.0062 97.5492
24 12 1 97.642 99.9648 97.2545
25 13 1 99.2388 100.191 98.5311
26 13 1 99.7949 99.417 99.2128
27 14 1 99.1389 98.0893 100.272
28 14 1 98.3768 98.3719 99.4477
29 15 1 98.761 100.066 97.1712
30 15 1 98.3236 101.171 97.355
31 16 1 97.2508 99.8621 98.2728
32 16 1 98.2507 99.7505 98.9537
33 17 1 99.5024 99.4404 97.5709
34 17 1 99.0048 99.0288 98.5992
35 18 1 102.022 99.8933 102.159
36 18 1 100.964 99.5186 102.537
37 19 1 99.8688 99.3828 102.357
38 19 1 100.282 100.253 97.0649
39 20 1 97.9839 97.1432 101.973
40 20 1 98.7415 97.5436 101.175
41 21 1 98.2185 100.197 101.276
42 21 1 98.1676 99.6273 102.341
43 22 1 97.8335 98.7292 102.808
44 22 1 98.7567 98.2601 97.5409
45 23 1 102.922 97.8481 100.709
46 23 1 97.1395 98.3309 99.5698
47 24 1 101.185 98.3759 102.833
48 24 1 102.431 98.2036 102.73
49 25 1 102.08 99.4518 98.2714
50 25 1 101.835 99.3025 97.1427
51 26 1 101.795 98.8632 102.134
52 26 1 102.407 99.4825 101.31
53 27 1 100.991 99.2219 100.487
54 27 1 100.075 99.9473 100.143
55 28 1 99.4674 97.231 102.115
56 28 1 99.8436 97.6478 101.086
57 29 1 101.481 98.5207 101.222
58 29 1 101.68 97.7552 102.126
59 30 1 101.231 97.7624 100.507
60 30 1 100.443 98.444 100.952
61 31 1 98.9279 102.355 99.4698
62 31 1 98.0755 101.692 98.8995
63 32 1 101.485 97.5458 98.3074
64 32 1 102.543 97.4436 98.8546
65 33 1 98.2271 100.689 102.297
66 33 1 98.0188 101.889 102.163
67 34 1 101.572 100.206 100.696
68 34 1 101.327 101.37 100.759
69 35 1 102.685 102.727 100.715
70 35 1 102.027 97.6172 101.161
71 36 1 99.5828 98.3283 102.254
72 36 1 98.5251 98.6903 101.872
73 37 1 102.673 98.4634 98.5138
74 37 1 97.6133 97.7459 98.8121
75 38 1 97.3353 99.9106 100.735
76 38 1 102.395 100.52 101.182
77 39 1 100.249 100.077 98.0859
78 39 1 101.447 100.28 97.8735
79 40 1 100.506 102.82 100.474
80 40 1 100.905 97.3885 101.431
81 41 1 102.348 101.212 97.2515
82 41 1 101.405 100.585 102.785
83 42 1 102.593 98.474 101.608
84 42 1 102.918 97.4004 101.773
85 43 1 98.2052 99.9961 100.172
86 43 1 99.2113 99.7223 100.693
87 44 1 102.927 102.041 97.5441
88 44 1 102.198 102.498 98.3634
89 45 1 97.7278 98.1602 101.484
90 45 1 97.7213 97.106 100.947
91 46 1 99.0628 99.6204 101.739
92 46 1 98.9011 99.0007 102.776
93 47 1 102.693 99.2904 99.2506
94 47 1 97.6937 98.8436 98.7637
95 48 1 101.48 102.758 99.1365
96 48 1 101.079 101.996 99.9188
97 49 1 99.1167 101.889 97.6825
98 49 1 98.957 101.526 102.555
99 50 1 97.3526 101.237 101.574
100 50 1 102.663 101.934 102.388
101 51 1 101.743 101.741 99.0606
102 51 1 100.565 101.818 98.9926
103 52 1 101.935 100.102 99.1325
104 52 1 102.395 100.657 98.1951
105 53 1 100.98 99.7017 98.7143
106 53 1 100.616 98.7738 99.4453
107 54 1 102.119 102.62 101.706
108 54 1 97.2715 102.31 101.584
109 55 1 102.04 98.5294 100.37
110 55 1 101.603 99.181 99.4734
111 56 1 100.689 102.924 97.2796
112 56 1 100.212 101.963 97.878
113 57 1 101.623 97.4888 97.2434
114 57 1 102.671 97.7799 97.7259
115 58 1 101.334 102.721 102.412
116 58 1 100.501 97.6484 102.382
117 59 1 102.502 101.011 99.1891
118 59 1 97.2997 100.16 99.6367
119 60 1 97.5708 102.606 102.831
120 60 1 97.3356 102.93 98.0365
121 61 1 97.5069 97.7501 102.741
122 61 1 102.47 97.0347 102.69
123 62 1 99.1994 97.0546 97.9108
124 62 1 99.7754 102.409 102.958
125 63 1 102.095 101.89 100.307
126 63 1 102.686 100.846 100.224
127 64 1 100.672 100.997 97.707
128 64 1 101.718 101.514 98.032
129 65 1 101.029 100.032 99.7649
130 65 1 100.62 100.522 100.846
131 66 1 98.3953 97.2972 99.6308
132 66 1 97.1696 97.3294 99.7652
133 67 1 98.7951 100.707 100.586
134 67 1 98.4183 101.602 99.9471
135 68 1 98.2199 100.371 98.1374
136 68 1 98.3115 100.728 99.3583
137 69 1 100.587 101.363 101.957
138 69 1 101.649 101.627 102.286
139 70 1 100.206 97.0381 98.2132
140 70 1 99.3249 97.3088 98.9766
141 71 1 100.654 101.012 99.8776
142 71 1 99.9914 102.002 99.9092
143 72 1 99.6219 101.664 101.77
144 72 1 99.1805 101.714 100.696
145 73 1 99.6552 100.578 101.298
146 73 1 99.7269 100.943 100.211
147 74 1 98.5776 97.8591 98.4969
148 74 1 99.6287 98.0081 98.1093
149 75 1 97.7532 102.463 100.022
150 75 1 97.1084 101.753 100.67
151 76 1 100.346 102.838 99.3516
152 76 1 101.173 97.7605 99.4396
153 77 1 99.8502 98.9246 100.205
154 77 1 99.4494 98.3756 99.2562
155 78 1 101.167 102.147 101.432
156 78 1 102.245 101.622 101.347
157 79 1 97.9737 102.031 97.9229
158 79 1 102.949 101.724 98.5566
159 80 1 98.933 99.1862 99.7423
160 80 1 97.7356 99.1888 99.7381
161 81 2 102.085 97.3936 99.9613
162 82 2 97.2026 100.147 101.943
163 83 2 98.8012 102.377 101.649
164 84 2 101.831 98.4384 97.7263
165 85 2 101.112 102.368 98.22
166 86 2 97.3287 100.991 97.7484
167 87 2 98.091 101.888 101.02
168 88 2 102.509 100.108 97.1613
169 89 2 99.9827 101.402 102.844
170 90 2 100.289 101.564 100.866
171 91 2 100.116 99.4728 101.212
172 92 2 99.4398 100.753 97.4996
173 93 2 100.999 99.1847 97.7311
174 94 2 100.931 101.847 97.1176
175 95 2 102.862 99.2202 102.469
176 96 2 99.5047 97.0927 100.093
177 97 2 100.176 100.399 99.2008
178 98 2 99.2042 100.224 99.6127
179 99 2 102.521 102.421 99.4457
180 100 2 101.692 101.016 99.838
181 101 2 97.7049 98.2578 97.7935
182 102 2 98.6185 97.8247 102.52
183 103 2 98.7381 102.624 102.795
184 104 2 100.22 98.8515 98.3443
185 105 2 98.2653 99.2194 97.8361
186 106 2 99.5232 102.239 98.6559
187 107 2 97.782 100.927 100.474
188 108 2 97.5095 102.584 99.0116
189 109 2 100.164 97.9282 100.008
190 110 2 101.597 102.737 100.678
191 111 2 100.306 102.486 102.03
192 112 2 97.9659 98.0109 100.394
193 113 2 102.358 99.7065 100.249
194 114 2 99.3214 98.6916 101.19
195 115 2 101.91 102.273 97.3065
196 116 2 98.2801 98.966 100.769
197 117 2 101.459 100.706 101.7
198 118 2 100.622 98.6479 101.98
199 119 2 100.727 98.0055 97.7733
200 120 2 102.087 98.2501 99.3594
ITEM: TIMESTEP
1000
ITEM: NUMBER OF ATOMS
200
ITEM: BOX BOUNDS pp pp pp
9.6996891465895601e+01 1.0300310853410440e+02
9.7026772895079233e+01 1.0297322710492077e+02
9.7026772895079233e+01 1.0297322710492077e+02
ITEM: ATOMS id mol type x y z
1 1 1 99.9016 101.149 98.5237
2 1 1 101.079 100.86 98.7556
3 2 1 97.4061 101.126 102.68
4 2 1 102.425 100.879 102.181
5 3 1 99.2725 101.259 99.4059
6 3 1 98.79 101.194 98.3836
7 4 1 97.3151 101.52 99.7136
8 4 1 97.4457 100.794 98.7702
9 5 1 97.133 98.8439 100.595
10 5 1 97.5492 99.1711 101.621
11 6 1 98.2348 97.3068 97.5699
12 6 1 98.4714 102.707 98.5968
13 7 1 100.147 98.734 97.1578
14 7 1 99.6831 97.6162 97.1342
15 8 1 101.293 99.6036 101.473
16 8 1 100.465 100.247 101.98
17 9 1 98.7814 101.195 101.597
18 9 1 99.3183 100.402 102.365
19 10 1 99.6592 102.625 101.096
20 10 1 98.6385 102.611 100.457
21 11 1 101.331 98.6193 98.6778
22 11 1 100.384 97.8934 98.7897
23 12 1 102.97 99.0677 97.6214
24 12 1 97.5811 100.044 97.1992
25 13 1 99.205 100.165 98.5277
26 13 1 99.7736 99.3926 99.2533
27 14 1 99.0797 98.1324 100.263
28 14 1 98.2997 98.3956 99.437
29 15 1 98.6735 100.061 97.1943
30 15 1 98.3291 101.175 97.3425
31 16 1 97.1364 99.8915 98.314
32 16 1 98.1941 99.7268 98.9133
33 17 1 99.5089 99.4921 97.5759
34 17 1 98.9247 98.9877 98.5352
35 18 1 102.101 99.9059 102.169
36 18 1 101.012 99.4699 102.518
37 19 1 99.8658 99.4316 102.415
38 19 1 100.474 100.199 97.1067
39 20 1 97.9665 97.1315 101.999
40 20 1 98.7362 97.6086 101.226
41 21 1 98.2104 100.164 101.345
42 21 1 98.1141 99.5453 102.385
43 22 1 97.778 98.6719 102.823
44 22 1 98.7059 98.3006 97.5735
45 23 1 102.95 97.8275 100.664
46 23 1 97.0784 98.3414 99.6315
47 24 1 101.222 98.4358 102.855
48 24 1 102.477 98.2951 102.814
49 25 1 102.046 99.3793 98.3813
50 25 1 101.901 99.3041 97.2165
51 26 1 101.834 98.8718 102.154
52 26 1 102.509 99.4632 101.347
53 27 1 101.056 99.2227 100.413
54 27 1 100.112 99.9275 100.143
55 28 1 99.4963 97.2392 102.061
56 28 1 99.8016 97.7352 101.036
57 29 1 101.429 98.5207 101.267
58 29 1 101.741 97.78 102.157
59 30 1 101.251 97.8697 100.447
60 30 1 100.424 98.5062 100.963
61 31 1 98.9286 102.358 99.4922
62 31 1 98.055 101.703 98.9097
63 32 1 101.44 97.5276 98.3505
64 32 1 102.521 97.4433 98.8172
65 33 1 98.2509 100.633 102.335
66 33 1 98.078 101.797 102.195
67 34 1 101.625 100.23 100.649
68 34 1 101.299 101.351 100.764
69 35 1 102.74 102.756 100.702
70 35 1 102.051 97.6692 101.123
71 36 1 99.6384 98.3038 102.217
72 36 1 98.456 98.6179 101.904
73 37 1 102.671 98.5083 98.5159
74 37 1 97.5249 97.7477 98.8784
75 38 1 97.326 99.9395 100.792
76 38 1 102.41 100.499 101.238
77 39 1 100.258 100.096 98.1212
78 39 1 101.477 100.258 97.897
79 40 1 100.472 102.849 100.447
80 40 1 100.957 97.4846 101.387
81 41 1 102.373 101.166 97.2148
82 41 1 101.479 100.506 102.784
83 42 1 102.654 98.4524 101.532
84 42 1 102.956 97.3428 101.667
85 43 1 98.1989 99.9854 100.215
86 43 1 99.226 99.742 100.718
87 44 1 102.929 102.063 97.4507
88 44 1 102.254 102.519 98.3028
89 45 1 97.679 98.1147 101.428
90 45 1 97.8009 97.031 100.955
91 46 1 99.0222 99.5488 101.76
92 46 1 98.961 98.9504 102.768
93 47 1 102.729 99.3406 99.2619
94 47 1 97.6606 98.7964 98.7332
95 48 1 101.485 102.717 99.0932
96 48 1 100.988 102.065 99.9464
97 49 1 99.0702 101.956 97.7363
98 49 1 99.0356 101.525 102.583
99 50 1 97.3425 101.196 101.601
100 50 1 102.681 101.89 102.384
101 51 1 101.783 101.748 98.9759
102 51 1 100.651 101.83 98.9597
103 52 1 102.017 100.158 99.1836
104 52 1 102.453 100.724 98.2436
105 53 1 100.995 99.7108 98.7977
106 53 1 100.643 98.754 99.4643
107 54 1 102.112 102.632 101.685
108 54 1 97.2701 102.308 101.645
109 55 1 102.102 98.533 100.389
110 55 1 101.663 99.2118 99.4959
111 56 1 100.6 102.906 97.2354
112 56 1 100.21 101.96 97.8441
113 57 1 101.551 97.4894 97.2704
114 57 1 102.614 97.6258 97.7128
115 58 1 101.318 102.742 102.368
116 58 1 100.53 97.6909 102.386
117 59 1 102.551 101.067 99.2486
118 59 1 97.2839 100.225 99.6764
119 60 1 97.6876 102.536 102.894
120 60 1 97.3485 102.92 98.0448
121 61 1 97.4636 97.6247 102.832
122 61 1 102.53 96.9781 102.67
123 62 1 99.2682 97.0051 97.8449
124 62 1 99.789 102.33 102.854
125 63 1 102.075 101.937 100.323
126 63 1 102.623 100.836 100.27
127 64 1 100.684 101.03 97.7736
128 64 1 101.716 101.475 97.9379
129 65 1 101.08 100.093 99.783
130 65 1 100.599 100.487 100.875
131 66 1 98.3857 97.33 99.618
132 66 1 97.1811 97.331 99.7727
133 67 1 98.8089 100.741 100.617
134 67 1 98.3796 101.607 99.9286
135 68 1 98.1568 100.404 98.1179
136 68 1 98.2741 100.697 99.3862
137 69 1 100.567 101.363 101.886
138 69 1 101.638 101.622 102.259
139 70 1 100.291 96.9936 98.2472
140 70 1 99.3562 97.2944 98.9108
141 71 1 100.657 101.097 99.8305
142 71 1 99.8683 101.991 99.8223
143 72 1 99.6285 101.797 101.734
144 72 1 99.1978 101.733 100.632
145 73 1 99.6682 100.683 101.358
146 73 1 99.7621 100.914 100.244
147 74 1 98.5034 97.8583 98.5344
148 74 1 99.5993 98.0357 98.1295
149 75 1 97.7089 102.426 100.055
150 75 1 97.0543 101.72 100.742
151 76 1 100.356 102.832 99.337
152 76 1 101.204 97.7574 99.3889
153 77 1 99.8438 98.9177 100.208
154 77 1 99.4186 98.2984 99.2052
155 78 1 101.161 102.203 101.403
156 78 1 102.201 101.568 101.362
157 79 1 98.0164 102.027 97.8708
158 79 1 103.023 101.811 98.5305
159 80 1 98.8499 99.2122 99.7873
160 80 1 97.6733 99.2116 99.7413
161 81 2 102.141 97.3799 99.9389
162 82 2 97.2248 100.155 101.979
163 83 2 98.7565 102.419 101.64
164 84 2 101.833 98.4092 97.8018
165 85 2 101.185 102.349 98.1241
166 86 2 97.3134 101.028 97.7431
167 87 2 98.0868 101.834 101.06
168 88 2 102.54 100.148 97.2022
169 89 2 100.021 101.247 102.734
170 90 2 100.267 101.599 100.845
171 91 2 100.142 99.4908 101.283
172 92 2 99.4205 100.739 97.4956
173 93 2 101.012 99.2026 97.7729
174 94 2 100.891 101.821 97.037
175 95 2 102.917 99.2526 102.483
176 96 2 99.5157 97.1415 100.048
177 97 2 100.143 100.428 99.211
178 98 2 99.1735 100.195 99.6351
179 99 2 102.552 102.404 99.3778
180 100 2 101.646 101.123 99.7986
181 101 2 97.5905 98.1216 97.8684
182 102 2 98.6507 97.7657 102.547
183 103 2 98.7669 102.612 102.73
184 104 2 100.206 98.8553 98.331
185 105 2 98.077 99.2294 97.7791
186 106 2 99.5531 102.166 98.6815
187 107 2 97.742 100.934 100.491
188 108 2 97.5147 102.628 99.0399
189 109 2 100.177 97.9335 99.9725
190 110 2 101.541 102.816 100.672
191 111 2 100.369 102.548 101.967
192 112 2 97.9393 98.0024 100.417
193 113 2 102.443 99.6452 100.303
194 114 2 99.2468 98.702 101.187
195 115 2 101.877 102.279 97.2445
196 116 2 98.2517 99.0149 100.763
197 117 2 101.448 100.667 101.7
198 118 2 100.63 98.6876 101.96
199 119 2 100.678 98.0348 97.7692
200 120 2 102.102 98.2843 99.3301
ITEM: TIMESTEP
2000
ITEM: NUMBER OF ATOMS
200
ITEM: BOX BOUNDS pp pp pp
9.6966709723355962e+01 1.0303329027664404e+02
9.7026772895079233e+01 1.0297322710492077e+02
9.7026772895079233e+01 1.0297322710492077e+02
ITEM: ATOMS id mol type x y z
1 1 1 99.8739 101.161 98.5209
2 1 1 101.014 100.828 98.787
3 2 1 97.3618 101.083 102.656
4 2 1 102.463 100.926 102.159
5 3 1 99.2024 101.352 99.4144
6 3 1 98.7898 101.14 98.3675
7 4 1 97.2676 101.554 99.6574
8 4 1 97.3906 100.74 98.8329
9 5 1 97.0973 98.8384 100.615
10 5 1 97.5361 99.1738 101.601
11 6 1 98.2008 97.3639 97.549
12 6 1 98.4486 102.693 98.5391
13 7 1 100.172 98.6834 97.2029
14 7 1 99.6882 97.5603 97.1032
15 8 1 101.305 99.5903 101.519
16 8 1 100.479 100.323 101.947
17 9 1 98.708 101.184 101.6
18 9 1 99.3584 100.507 102.366
19 10 1 99.6612 102.642 101.117
20 10 1 98.5978 102.733 100.529
21 11 1 101.309 98.6201 98.6881
22 11 1 100.303 97.9449 98.8399
23 12 1 102.987 99.0829 97.5806
24 12 1 97.5982 99.9749 97.1662
25 13 1 99.173 100.132 98.5078
26 13 1 99.6996 99.4158 99.242
27 14 1 99.0755 98.1381 100.345
28 14 1 98.3195 98.3388 99.4447
29 15 1 98.6717 99.9987 97.2212
30 15 1 98.3391 101.127 97.3508
31 16 1 97.1696 99.8106 98.2826
32 16 1 98.1952 99.649 98.9876
33 17 1 99.5386 99.5464 97.5606
34 17 1 98.9822 99.0162 98.4675
35 18 1 102.072 99.9509 102.147
36 18 1 101.059 99.5997 102.575
37 19 1 99.919 99.3868 102.385
38 19 1 100.295 100.252 97.0695
39 20 1 97.9614 97.0856 101.98
40 20 1 98.7421 97.6106 101.26
41 21 1 98.185 100.275 101.34
42 21 1 98.1823 99.6048 102.307
43 22 1 97.7945 98.7448 102.835
44 22 1 98.6638 98.3105 97.5735
45 23 1 102.986 97.7979 100.75
46 23 1 97.0607 98.3204 99.6634
47 24 1 101.274 98.4521 102.868
48 24 1 102.493 98.3143 102.804
49 25 1 102.119 99.3906 98.4136
50 25 1 101.995 99.2736 97.2225
51 26 1 101.844 98.9081 102.161
52 26 1 102.503 99.4115 101.295
53 27 1 101.051 99.2569 100.462
54 27 1 100.071 99.8841 100.136
55 28 1 99.5476 97.2257 102.104
56 28 1 99.8153 97.7284 101.069
57 29 1 101.478 98.5339 101.288
58 29 1 101.82 97.7629 102.133
59 30 1 101.291 97.886 100.436
60 30 1 100.47 98.5508 100.995
61 31 1 98.8232 102.339 99.5172
62 31 1 98.0572 101.659 98.9003
63 32 1 101.535 97.5742 98.3923
64 32 1 102.603 97.4266 98.8787
65 33 1 98.2377 100.638 102.344
66 33 1 98.0056 101.85 102.204
67 34 1 101.582 100.237 100.672
68 34 1 101.252 101.356 100.691
69 35 1 102.706 102.708 100.72
70 35 1 102.042 97.6296 101.132
71 36 1 99.5871 98.3106 102.265
72 36 1 98.4896 98.6499 101.861
73 37 1 102.757 98.4316 98.5142
74 37 1 97.603 97.6425 98.8568
75 38 1 97.3411 99.8275 100.822
76 38 1 102.466 100.466 101.229
77 39 1 100.272 100.04 98.1036
78 39 1 101.45 100.27 97.9186
79 40 1 100.494 102.798 100.469
80 40 1 101.02 97.4011 101.418
81 41 1 102.425 101.2 97.2135
82 41 1 101.504 100.575 102.741
83 42 1 102.72 98.4436 101.634
84 42 1 103.005 97.3372 101.778
85 43 1 98.1742 99.9587 100.19
86 43 1 99.1698 99.7072 100.69
87 44 1 103 102.025 97.532
88 44 1 102.246 102.474 98.3011
89 45 1 97.7082 98.089 101.447
90 45 1 97.6663 97.0184 100.932
91 46 1 99.0622 99.6968 101.738
92 46 1 98.9611 98.9807 102.746
93 47 1 102.73 99.2549 99.3058
94 47 1 97.6118 98.7187 98.7627
95 48 1 101.568 102.757 99.0989
96 48 1 101.08 102.074 99.8473
97 49 1 99.1085 101.87 97.6839
98 49 1 98.9316 101.555 102.527
99 50 1 97.277 101.225 101.581
100 50 1 102.781 101.891 102.42
101 51 1 101.806 101.759 98.954
102 51 1 100.613 101.875 98.9144
103 52 1 102.042 100.117 99.2215
104 52 1 102.435 100.629 98.229
105 53 1 101.032 99.7025 98.7795
106 53 1 100.6 98.8226 99.4902
107 54 1 102.143 102.623 101.668
108 54 1 97.2075 102.291 101.596
109 55 1 102.146 98.5469 100.409
110 55 1 101.586 99.1834 99.5515
111 56 1 100.636 102.907 97.2427
112 56 1 100.119 101.975 97.8275
113 57 1 101.589 97.5165 97.2404
114 57 1 102.646 97.6309 97.7019
115 58 1 101.391 102.802 102.362
116 58 1 100.568 97.7012 102.398
117 59 1 102.535 101.054 99.1803
118 59 1 97.2356 100.181 99.6876
119 60 1 97.5731 102.575 102.85
120 60 1 97.3373 102.909 98.0082
121 61 1 97.4548 97.7364 102.668
122 61 1 102.543 97.1049 102.695
123 62 1 99.1802 96.9738 97.8085
124 62 1 99.7642 102.389 102.839
125 63 1 102.13 101.943 100.298
126 63 1 102.674 100.883 100.236
127 64 1 100.63 100.997 97.7605
128 64 1 101.692 101.476 97.9306
129 65 1 101.05 100.08 99.7497
130 65 1 100.578 100.518 100.818
131 66 1 98.3281 97.3029 99.5807
132 66 1 97.1408 97.2561 99.8546
133 67 1 98.8052 100.738 100.611
134 67 1 98.3039 101.54 99.9463
135 68 1 98.1395 100.347 98.1412
136 68 1 98.2362 100.638 99.3674
137 69 1 100.594 101.4 101.864
138 69 1 101.689 101.669 102.272
139 70 1 100.26 97.0052 98.2518
140 70 1 99.3404 97.2839 98.9457
141 71 1 100.674 101.073 99.8199
142 71 1 99.8982 101.977 99.8627
143 72 1 99.6169 101.777 101.704
144 72 1 99.1452 101.782 100.617
145 73 1 99.6208 100.709 101.355
146 73 1 99.7388 100.94 100.184
147 74 1 98.5301 97.8867 98.5108
148 74 1 99.6447 98.0297 98.0811
149 75 1 97.7665 102.422 100.038
150 75 1 97.038 101.743 100.667
151 76 1 100.303 102.877 99.3743
152 76 1 101.164 97.7772 99.4132
153 77 1 99.8371 98.919 100.215
154 77 1 99.4079 98.3755 99.2041
155 78 1 101.193 102.16 101.389
156 78 1 102.229 101.579 101.315
157 79 1 97.9434 101.973 97.8529
158 79 1 103.075 101.7 98.5216
159 80 1 98.8553 99.1491 99.8447
160 80 1 97.6508 99.1651 99.7634
161 81 2 102.137 97.4062 99.9827
162 82 2 97.1632 100.141 101.969
163 83 2 98.7499 102.388 101.657
164 84 2 101.811 98.4273 97.8121
165 85 2 101.186 102.397 98.1223
166 86 2 97.2951 100.952 97.7437
167 87 2 98.0478 101.838 101.081
168 88 2 102.58 100.134 97.1743
169 89 2 100.027 101.352 102.765
170 90 2 100.243 101.617 100.848
171 91 2 100.136 99.5329 101.246
172 92 2 99.4544 100.737 97.4931
173 93 2 101.063 99.2151 97.7735
174 94 2 100.917 101.888 97.0065
175 95 2 102.955 99.2314 102.464
176 96 2 99.4525 97.1195 100.079
177 97 2 100.14 100.385 99.2177
178 98 2 99.1631 100.222 99.6151
179 99 2 102.577 102.429 99.3493
180 100 2 101.705 101.068 99.7884
181 101 2 97.5794 98.1636 97.8449
182 102 2 98.631 97.7929 102.532
183 103 2 98.7634 102.629 102.758
184 104 2 100.185 98.892 98.3411
185 105 2 98.0832 99.1838 97.8315
186 106 2 99.5364 102.237 98.6956
187 107 2 97.64 100.884 100.454
188 108 2 97.5082 102.551 99.0024
189 109 2 100.179 97.9127 100.035
190 110 2 101.546 102.784 100.639
191 111 2 100.426 102.493 102.016
192 112 2 97.9407 97.9599 100.394
193 113 2 102.402 99.7323 100.265
194 114 2 99.3188 98.7562 101.213
195 115 2 101.949 102.327 97.2744
196 116 2 98.2638 98.9444 100.754
197 117 2 101.46 100.683 101.656
198 118 2 100.676 98.7449 102.052
199 119 2 100.749 98.0113 97.8115
200 120 2 102.105 98.2453 99.3498
ITEM: TIMESTEP
3000
ITEM: NUMBER OF ATOMS
200
ITEM: BOX BOUNDS pp pp pp
9.6936224649260907e+01 1.0306377535073909e+02
9.7026772895079233e+01 1.0297322710492077e+02
9.7026772895079233e+01 1.0297322710492077e+02
ITEM: ATOMS id mol type x y z
1 1 1 99.8499 101.128 98.5541
2 1 1 101.078 100.845 98.7501
3 2 1 97.3387 101.353 102.761
4 2 1 102.519 100.938 102.185
5 3 1 99.2819 101.264 99.4368
6 3 1 98.7824 101.185 98.3983
7 4 1 97.2648 101.466 99.6874
8 4 1 97.4218 100.703 98.8319
9 5 1 97.0602 98.8073 100.629
10 5 1 97.5341 99.1912 101.619
11 6 1 98.115 97.3253 97.5514
12 6 1 98.4423 102.593 98.4379
13 7 1 100.249 98.7813 97.1336
14 7 1 99.7209 97.6788 97.1454
15 8 1 101.358 99.6143 101.492
16 8 1 100.511 100.261 102.007
17 9 1 98.768 101.225 101.607
18 9 1 99.206 100.411 102.348
19 10 1 99.68 102.604 101.072
20 10 1 98.6149 102.659 100.512
21 11 1 101.321 98.6082 98.6995
22 11 1 100.343 97.9294 98.8669
23 12 1 102.971 98.9958 97.6099
24 12 1 97.5456 99.9482 97.2394
25 13 1 99.1939 100.161 98.4764
26 13 1 99.7419 99.3733 99.2231
27 14 1 99.0636 98.1333 100.272
28 14 1 98.2884 98.3756 99.4013
29 15 1 98.6682 100.084 97.2504
30 15 1 98.2567 101.138 97.3875
31 16 1 97.1455 99.8417 98.2518
32 16 1 98.1748 99.6908 98.9543
33 17 1 99.5484 99.5295 97.5171
34 17 1 99.0348 98.9751 98.4578
35 18 1 102.179 99.9055 102.177
36 18 1 101.111 99.5146 102.571
37 19 1 99.7618 99.4568 102.393
38 19 1 100.368 100.138 97.1058
39 20 1 97.9848 97.16 101.98
40 20 1 98.7045 97.6524 101.209
41 21 1 98.1418 100.188 101.328
42 21 1 98.1472 99.6232 102.395
43 22 1 97.8013 98.691 102.869
44 22 1 98.7177 98.2616 97.5961
45 23 1 103.045 97.7937 100.729
46 23 1 96.9676 98.3513 99.6538
47 24 1 101.253 98.4319 102.833
48 24 1 102.5 98.2565 102.797
49 25 1 102.103 99.4456 98.3599
50 25 1 102.004 99.2863 97.1799
51 26 1 101.871 98.904 102.128
52 26 1 102.559 99.4219 101.303
53 27 1 101.038 99.2715 100.513
54 27 1 100.103 99.8884 100.161
55 28 1 99.4372 97.2874 102.105
56 28 1 99.8019 97.695 101.061
57 29 1 101.429 98.515 101.27
58 29 1 101.775 97.7838 102.158
59 30 1 101.23 97.8522 100.485
60 30 1 100.415 98.5255 100.957
61 31 1 98.8502 102.311 99.4857
62 31 1 97.998 101.706 98.9091
63 32 1 101.566 97.5622 98.3531
64 32 1 102.628 97.4562 98.8736
65 33 1 98.1416 100.688 102.316
66 33 1 98.0309 101.865 102.17
67 34 1 101.686 100.238 100.665
68 34 1 101.271 101.355 100.768
69 35 1 102.763 102.73 100.746
70 35 1 102.083 97.7019 101.148
71 36 1 99.6243 98.3471 102.232
72 36 1 98.469 98.6227 101.88
73 37 1 102.707 98.4915 98.5439
74 37 1 97.4932 97.7361 98.8448
75 38 1 97.296 99.8691 100.788
76 38 1 102.558 100.504 101.243
77 39 1 100.259 99.9211 98.1503
78 39 1 101.434 100.266 97.9007
79 40 1 100.553 102.871 100.476
80 40 1 101.027 97.3785 101.443
81 41 1 102.411 101.187 97.2538
82 41 1 101.494 100.581 102.807
83 42 1 102.773 98.4567 101.693
84 42 1 103.003 97.3452 101.761
85 43 1 98.177 99.943 100.204
86 43 1 99.233 99.687 100.674
87 44 1 102.937 102.055 97.4811
88 44 1 102.242 102.593 98.2944
89 45 1 97.6542 98.146 101.405
90 45 1 97.6877 97.0619 100.971
91 46 1 98.9735 99.5505 101.701
92 46 1 98.9193 98.9627 102.779
93 47 1 102.758 99.2782 99.3229
94 47 1 97.5555 98.8529 98.7537
95 48 1 101.583 102.733 99.1298
96 48 1 101.059 102.062 99.9368
97 49 1 99.0289 101.914 97.7107
98 49 1 99.0005 101.532 102.58
99 50 1 97.3197 101.214 101.641
100 50 1 102.707 101.983 102.356
101 51 1 101.919 101.678 98.8347
102 51 1 100.674 101.818 98.9201
103 52 1 102.018 100.113 99.2375
104 52 1 102.418 100.632 98.2432
105 53 1 101.077 99.6988 98.7865
106 53 1 100.656 98.7998 99.497
107 54 1 102.188 102.646 101.675
108 54 1 97.2392 102.299 101.581
109 55 1 102.162 98.5508 100.411
110 55 1 101.629 99.2264 99.594
111 56 1 100.62 102.873 97.2002
112 56 1 100.158 101.943 97.8263
113 57 1 101.532 97.5094 97.2517
114 57 1 102.598 97.6713 97.7674
115 58 1 101.368 102.757 102.338
116 58 1 100.55 97.7139 102.357
117 59 1 102.585 100.983 99.2397
118 59 1 97.216 100.203 99.7401
119 60 1 97.4513 102.576 102.779
120 60 1 97.2154 102.927 98.0021
121 61 1 97.4179 97.7008 102.777
122 61 1 102.518 97.0831 102.677
123 62 1 99.2384 97.01 97.7949
124 62 1 99.7375 102.314 102.845
125 63 1 102.167 101.931 100.336
126 63 1 102.65 100.825 100.276
127 64 1 100.525 100.925 97.7902
128 64 1 101.583 101.445 97.8443
129 65 1 101.061 100.123 99.7897
130 65 1 100.638 100.442 100.92
131 66 1 98.3443 97.3002 99.5279
132 66 1 97.1389 97.2921 99.7577
133 67 1 98.8209 100.71 100.617
134 67 1 98.3349 101.547 99.9488
135 68 1 98.1757 100.385 98.1641
136 68 1 98.268 100.663 99.4007
137 69 1 100.668 101.358 101.788
138 69 1 101.708 101.627 102.279
139 70 1 100.3 97.0407 98.2283
140 70 1 99.3346 97.2527 98.9055
141 71 1 100.668 101.111 99.8336
142 71 1 99.919 102.039 99.8184
143 72 1 99.6487 101.772 101.74
144 72 1 99.1981 101.78 100.625
145 73 1 99.7532 100.735 101.408
146 73 1 99.7687 100.896 100.26
147 74 1 98.4772 97.7574 98.4672
148 74 1 99.5812 97.9973 98.1284
149 75 1 97.7059 102.404 100.031
150 75 1 97.0384 101.691 100.711
151 76 1 100.39 102.831 99.3278
152 76 1 101.193 97.7233 99.4527
153 77 1 99.8125 98.9142 100.184
154 77 1 99.3559 98.3116 99.2208
155 78 1 101.178 102.205 101.383
156 78 1 102.254 101.587 101.342
157 79 1 97.8004 102.055 97.7741
158 79 1 103.047 101.673 98.5185
159 80 1 98.8368 99.1633 99.7805
160 80 1 97.6231 99.1425 99.7883
161 81 2 102.194 97.4178 99.9443
162 82 2 97.1151 100.154 101.996
163 83 2 98.7803 102.437 101.639
164 84 2 101.84 98.4366 97.7931
165 85 2 101.179 102.385 98.1596
166 86 2 97.2047 100.967 97.7475
167 87 2 98.0774 101.863 101.065
168 88 2 102.603 100.126 97.1852
169 89 2 100.082 101.223 102.682
170 90 2 100.236 101.662 100.792
171 91 2 100.132 99.5059 101.283
172 92 2 99.4144 100.807 97.508
173 93 2 101.032 99.1854 97.7673
174 94 2 100.854 101.859 96.9499
175 95 2 103.011 99.1992 102.47
176 96 2 99.413 97.148 100.075
177 97 2 100.18 100.415 99.2311
178 98 2 99.1984 100.191 99.6125
179 99 2 102.673 102.381 99.3764
180 100 2 101.683 101.108 99.7842
181 101 2 97.5417 98.2026 97.8624
182 102 2 98.6092 97.8201 102.578
183 103 2 98.7659 102.647 102.772
184 104 2 100.206 98.8578 98.3001
185 105 2 98.1934 99.2092 97.815
186 106 2 99.5442 102.193 98.6856
187 107 2 97.7089 100.862 100.528
188 108 2 97.502 102.616 98.9875
189 109 2 100.153 97.9317 99.9866
190 110 2 101.646 102.831 100.653
191 111 2 100.339 102.534 101.995
192 112 2 97.9254 98.0146 100.338
193 113 2 102.465 99.6472 100.311
194 114 2 99.2573 98.6661 101.138
195 115 2 101.862 102.282 97.25
196 116 2 98.2585 99.0085 100.797
197 117 2 101.521 100.686 101.694
198 118 2 100.664 98.7779 101.97
199 119 2 100.757 98.0581 97.772
200 120 2 102.068 98.3132 99.3375
ITEM: TIMESTEP
4000
ITEM: NUMBER OF ATOMS
200
ITEM: BOX BOUNDS pp pp pp
9.6905433195077620e+01 1.0309456680492238e+02
9.7026772895079233e+01 1.0297322710492077e+02
9.7026772895079233e+01 1.0297322710492077e+02
ITEM: ATOMS id mol type x y z
1 1 1 99.8639 101.154 98.5505
2 1 1 101.067 100.826 98.7886
3 2 1 97.2999 101.218 102.735
4 2 1 102.512 100.921 102.204
5 3 1 99.2387 101.249 99.4311
6 3 1 98.7583 101.18 98.3921
7 4 1 97.2651 101.531 99.6777
8 4 1 97.3463 100.749 98.812
9 5 1 96.9807 98.8409 100.542
10 5 1 97.4128 99.1096 101.633
11 6 1 98.2154 97.2815 97.5888
12 6 1 98.465 102.664 98.5692
13 7 1 100.252 98.6896 97.1191
14 7 1 99.6322 97.638 97.091
15 8 1 101.338 99.6629 101.482
16 8 1 100.449 100.254 102.041
17 9 1 98.6675 101.21 101.559
18 9 1 99.233 100.412 102.301
19 10 1 99.6851 102.659 101.127
20 10 1 98.601 102.781 100.54
21 11 1 101.362 98.6282 98.6884
22 11 1 100.342 97.9883 98.8296
23 12 1 102.988 99.0632 97.6402
24 12 1 97.4781 99.968 97.2071
25 13 1 99.1646 100.178 98.5584
26 13 1 99.6609 99.3439 99.2591
27 14 1 99.0255 98.079 100.298
28 14 1 98.2214 98.3295 99.4277
29 15 1 98.6019 100.061 97.1792
30 15 1 98.2611 101.16 97.384
31 16 1 97.2116 99.8117 98.2905
32 16 1 98.2648 99.6205 98.9384
33 17 1 99.5007 99.4608 97.6194
34 17 1 98.9055 98.8728 98.4941
35 18 1 102.154 99.9165 102.164
36 18 1 101.044 99.5349 102.532
37 19 1 99.7678 99.4675 102.427
38 19 1 100.451 100.145 97.1525
39 20 1 97.9104 97.0964 101.957
40 20 1 98.7573 97.6282 101.289
41 21 1 98.1624 100.197 101.301
42 21 1 98.0549 99.6249 102.318
43 22 1 97.7536 98.714 102.857
44 22 1 98.637 98.3195 97.5881
45 23 1 103.007 97.8269 100.693
46 23 1 97.0192 98.2987 99.5873
47 24 1 101.286 98.4187 102.819
48 24 1 102.518 98.1886 102.764
49 25 1 102.197 99.4991 98.3019
50 25 1 101.957 99.3673 97.132
51 26 1 101.926 98.8884 102.128
52 26 1 102.61 99.3824 101.325
53 27 1 101.124 99.3051 100.524
54 27 1 100.151 99.8508 100.174
55 28 1 99.5196 97.2652 102.075
56 28 1 99.8358 97.7389 101.027
57 29 1 101.476 98.5294 101.264
58 29 1 101.815 97.7603 102.125
59 30 1 101.294 97.8396 100.46
60 30 1 100.445 98.5635 100.915
61 31 1 98.9043 102.306 99.576
62 31 1 98.0581 101.743 98.9619
63 32 1 101.609 97.5517 98.3554
64 32 1 102.695 97.3925 98.8691
65 33 1 98.1376 100.686 102.333
66 33 1 98 101.843 102.162
67 34 1 101.687 100.248 100.606
68 34 1 101.291 101.338 100.732
69 35 1 102.769 102.739 100.7
70 35 1 102.088 97.671 101.13
71 36 1 99.5472 98.3789 102.288
72 36 1 98.4099 98.6269 101.892
73 37 1 102.827 98.4219 98.4581
74 37 1 97.5046 97.6724 98.8614
75 38 1 97.2898 99.8808 100.788
76 38 1 102.542 100.449 101.229
77 39 1 100.282 100.042 98.1365
78 39 1 101.457 100.289 97.9217
79 40 1 100.513 102.799 100.487
80 40 1 100.994 97.4628 101.409
81 41 1 102.469 101.248 97.2435
82 41 1 101.546 100.575 102.788
83 42 1 102.761 98.4117 101.623
84 42 1 103.056 97.3243 101.709
85 43 1 98.1415 99.9526 100.175
86 43 1 99.1735 99.671 100.662
87 44 1 103.092 102.033 97.4581
88 44 1 102.317 102.513 98.2469
89 45 1 97.6029 98.1185 101.432
90 45 1 97.6205 97.0887 100.893
91 46 1 98.9533 99.5675 101.686
92 46 1 98.8333 98.9993 102.79
93 47 1 102.838 99.3105 99.2313
94 47 1 97.585 98.7615 98.752
95 48 1 101.534 102.726 99.1465
96 48 1 101.051 102.039 99.9685
97 49 1 99.0079 101.968 97.7375
98 49 1 98.9551 101.481 102.615