LAMMPS (23 Jun 2022)
OMP_NUM_THREADS environment is not set. Defaulting to 1 thread. (src/comm.cpp:98)
  using 1 OpenMP thread(s) per MPI task
Reading data file ...
  orthogonal box = (96.873397 96.873397 96.873397) to (103.1266 103.1266 103.1266)
  1 by 1 by 1 MPI processor grid
  reading atoms ...
  200 atoms
  scanning bonds ...
  4 = max bonds/atom
  reading bonds ...
  203 bonds
Finding 1-2 1-3 1-4 neighbors ...
  special bond factors lj:    0        0        0       
  special bond factors coul:  0        0        0       
     4 = max # of 1-2 neighbors
     4 = max # of 1-3 neighbors
    10 = max # of 1-4 neighbors
    12 = max # of special neighbors
  special bonds CPU = 0.000 seconds
  read_data CPU = 0.003 seconds
Finding 1-2 1-3 1-4 neighbors ...
  special bond factors lj:    0        1        1       
  special bond factors coul:  0        0        0       
     4 = max # of 1-2 neighbors
     4 = max # of 1-3 neighbors
    10 = max # of 1-4 neighbors
    12 = max # of special neighbors
  special bonds CPU = 0.000 seconds
Generated 0 of 1 mixed pair_coeff terms from geometric mixing rule
Neighbor list info ...
  update every 1 steps, delay 0 steps, check yes
  max neighbors/atom: 2000, page size: 100000
  master list distance cutoff = 5.5
  ghost atom cutoff = 5.5
  binsize = 2.75, bins = 3 3 3
  1 neighbor lists, perpetual/occasional/extra = 1 0 0
  (1) pair lj/cut, perpetual
      attributes: half, newton on
      pair build: half/bin/newton
      stencil: half/bin/3d
      bin: standard
Setting up Verlet run ...
  Unit style    : lj
  Current step  : 0
  Time step     : 0.002
WARNING: Inconsistent image flags (src/domain.cpp:819)
Per MPI rank memory allocation (min/avg/max) = 8.742 | 8.742 | 8.742 Mbytes
   Step          Temp         Density         PotEng        Enthalpy        Press           Pxx            Pyy            Pzz            Pxy            Pxz            Pyz             Lx             Ly             Lz             Xy             Yz             Xz          Density    
         0   1.5            0.89973433    -4.2019604      0.98978314     2.4153724      2.0988421      2.5652877      2.5819874      0.21037884     0.29868297    -0.35666973     6.2532069      6.2532069      6.2532069      0              0              0              0.89973433   
      1000   1.3584533      0.7859632     -2.8755135      0.27578951     0.80297677     0.43361768     0.78456684     1.1907458      0.26937785     0.38902209    -0.50179937     6.5414419      6.5414419      6.5414419      0              0              0              0.7859632    
      2000   1.4373068      0.75307093    -2.7935059      0.30920212     0.65553291     1.0345104      1.196218      -0.26412962    -0.28177699     0.59743048     0.63270615     6.635326       6.635326       6.635326       0              0              0              0.75307093   
      3000   1.5673008      0.77679632    -2.7066101      1.4258153      1.2663397      1.2992986      1.634408       0.86531245     0.33305151     0.58995299    -0.48336388     6.567073       6.567073       6.567073       0              0              0              0.77679632   
      4000   1.5226228      0.76141684    -2.7922283      0.18293032     0.48636829     1.0078342      0.2844912      0.16677944    -0.22685184    -0.61640913    -0.33581119     6.6109936      6.6109936      6.6109936      0              0              0              0.76141684   
      5000   1.499826       0.79249526    -3.0698935      0.99611678     1.3166372      1.3341464      0.74983861     1.8659267      0.37680253    -0.49460763    -0.42207494     6.5234199      6.5234199      6.5234199      0              0              0              0.79249526   
      6000   1.6042712      0.80354092    -3.0357095      0.44890679     0.79641239     1.0915812      0.029265381    1.2683906      0.44214103    -0.84651063     0.24147945     6.4933911      6.4933911      6.4933911      0              0              0              0.80354092   
      7000   1.3621515      0.78901599    -2.8592282      0.60001039     1.0230148      1.5437007      0.28164892     1.2436949     -0.049319906   -0.25207502    -0.56758259     6.5329945      6.5329945      6.5329945      0              0              0              0.78901599   
      8000   1.4067111      0.7759767     -3.0280924      0.029549988    0.67589405     0.77866775     0.84459844     0.40441594     0.00022077689 -0.3081991      0.20650595     6.5693843      6.5693843      6.5693843      0              0              0              0.7759767    
      9000   1.3997891      0.80750894    -3.2215652     -0.26405103     0.63743947     0.54887033    -0.048693369    1.4121414      0.14604668     0.15222378     0.23877716     6.4827377      6.4827377      6.4827377      0              0              0              0.80750894   
     10000   1.4370598      0.79738871    -3.0378211      0.79535552     1.2238936      1.0808913      1.1129378      1.4778519      0.28609439    -0.44437683    -0.80956947     6.5100481      6.5100481      6.5100481      0              0              0              0.79738871   
     11000   1.5077508      0.79789509    -3.0078442      1.2261439      1.4388733      1.7332869      1.4042002      1.1791327      0.49641248    -0.059550528    0.13771508     6.5086707      6.5086707      6.5086707      0              0              0              0.79789509   
     12000   1.3848145      0.81775244    -3.1847543      0.8748887      1.4814755      1.515004       0.616859       2.3125634     -0.13799438     0.15447479    -0.48093997     6.4555554      6.4555554      6.4555554      0              0              0              0.81775244   
     13000   1.2696283      0.76373826    -2.8924382      0.40700461     0.97517055     0.86739702     1.1803702      0.8777444     -0.47326587    -0.28847433    -0.80267106     6.6042886      6.6042886      6.6042886      0              0              0              0.76373826   
     14000   1.3990662      0.79945191    -2.9113354      2.1961936      2.1944393      2.8901564      1.1534695      2.5396921      0.13835182    -0.45904864     0.09969598     6.504443       6.504443       6.504443       0              0              0              0.79945191   
     15000   1.3908271      0.81029496    -3.1793816      0.32408557     1.0516581      1.1148728      0.95815118     1.0819502     -0.41410341    -0.046659439    0.13843611     6.4752993      6.4752993      6.4752993      0              0              0              0.81029496   
     16000   1.3072313      0.78718093    -3.2051063     -0.82451903     0.30739026     0.74264494    -0.24526509     0.42479093     0.36057943    -0.15089947    -0.44591501     6.5380671      6.5380671      6.5380671      0              0              0              0.78718093   
     17000   1.2975744      0.80874302    -3.1753094     -1.2090772      0.02176429     0.82043819    -0.5398076     -0.21533772     0.061233252   -0.11784508     0.48080448     6.4794386      6.4794386      6.4794386      0              0              0              0.80874302   
     18000   1.4035245      0.82510777    -3.0738255      1.7386727      2.0385697      1.9784947      1.4997353      2.637479      -0.46942827     0.21256157    -0.44219468     6.4363157      6.4363157      6.4363157      0              0              0              0.82510777   
     19000   1.3524946      0.7843725     -3.2057288     -0.40824907     0.55539389     0.69030391     0.78754675     0.18833101    -0.059867189    0.15945634     0.072140549    6.5458609      6.5458609      6.5458609      0              0              0              0.7843725    
     20000   1.3256731      0.79317809    -3.1735691     -0.76450256     0.31042063    -0.051682395   -0.05699225     1.0399365     -0.1861506      0.26239383     0.82239768     6.5215474      6.5215474      6.5215474      0              0              0              0.79317809   
     21000   1.2879434      0.88171629    -3.5515804      0.30769337     1.5526368      2.1316779      1.4104224      1.1158102      0.49325338     0.39246351     0.051464962    6.2955151      6.2955151      6.2955151      0              0              0              0.88171629   
     22000   1.2872931      0.79041882    -3.2897049     -0.66613619     0.50463482     0.27992856    -0.20284709     1.436823      -0.74980769    -0.30018752    -0.10066475     6.5291273      6.5291273      6.5291273      0              0              0              0.79041882   
     23000   1.3462657      0.8106525     -3.3435414      0.68288121     1.4865312      1.6258655      1.2568275      1.5769006      0.26718597     0.3132694     -0.035987456    6.4743472      6.4743472      6.4743472      0              0              0              0.8106525    
     24000   1.2400661      0.82470752    -3.3308837     -0.46446749     0.76144306     1.8441315      0.28196911     0.15822855     0.36352876     0.03752433     0.57237032     6.4373567      6.4373567      6.4373567      0              0              0              0.82470752   
     25000   1.1250644      0.78291369    -3.1960779     -0.74686154     0.54808066     0.78457693     0.15791907     0.70174598    -0.29331295     0.62360333    -0.11514575     6.5499241      6.5499241      6.5499241      0              0              0              0.78291369   
     26000   1.2543858      0.84189827    -3.4527747      0.14405173     1.3199861      1.4049915      1.5582036      0.99676302    -0.46224278    -0.12535405    -0.12355072     6.3932402      6.3932402      6.3932402      0              0              0              0.84189827   
     27000   1.1652441      0.82590496    -3.1929383      0.026885929    1.1117412      1.1070384      1.0415804      1.1866048     -0.37850976    -0.14891669     0.15844068     6.4342441      6.4342441      6.4342441      0              0              0              0.82590496   
     28000   1.1596596      0.80506408    -3.4281585     -0.75141534     0.69231934     0.91432831     0.21749108     0.94513863     0.15130048     0.19741961     0.14121087     6.4892934      6.4892934      6.4892934      0              0              0              0.80506408   
     29000   1.1792915      0.83694598    -3.5254379     -0.42916038     1.0166497      1.5750231      0.7836665      0.69125942     0.30961451     0.74467819     0.39288714     6.4058252      6.4058252      6.4058252      0              0              0              0.83694598   
     30000   1.1543703      0.83455516    -3.3824639      0.35851265     1.5310892      1.9205152      1.7169163      0.95583611     0.17390599     0.32194945    -0.33231009     6.4119365      6.4119365      6.4119365      0              0              0              0.83455516   
     31000   1.283658       0.83523643    -3.4200386      0.56592444     1.5718417      1.5428319      1.6906098      1.4820834     -0.074302087   -0.30394396     0.25955285     6.4101927      6.4101927      6.4101927      0              0              0              0.83523643   
     32000   1.1535427      0.83211591    -3.4413337     -0.51229343     0.91334389     1.3176059      1.0536703      0.36875546     0.68959766    -0.022232945   -0.16238486     6.4181956      6.4181956      6.4181956      0              0              0              0.83211591   
     33000   1.1040076      0.84461526    -3.5401376     -0.073888053    1.3963166      1.2385333      0.69037486     2.2600416     -0.11874959    -0.78957416     0.64945178     6.3863775      6.3863775      6.3863775      0              0              0              0.84461526   
     34000   1.2282506      0.88429851    -3.6222833      0.50456984     1.8439145      1.9262285      1.9033607      1.7021541      0.14658489    -0.48199633     0.91914121     6.2893814      6.2893814      6.2893814      0              0              0              0.88429851   
     35000   1.1310924      0.81273085    -3.468341      -1.2297476      0.406689       0.83642606     0.21282171     0.17081923    -0.11050092     0.076647428    0.41624897     6.4688236      6.4688236      6.4688236      0              0              0              0.81273085   
     36000   1.1168086      0.83405902    -3.5447255     -0.71934087     0.87845201     1.2808318      0.53894647     0.81557774    -0.24822426     0.081930914   -0.30272296     6.4132076      6.4132076      6.4132076      0              0              0              0.83405902   
     37000   1.0707453      0.8540111     -3.5835164     -1.3475618      0.49522341     0.68253842    -0.50230692     1.3054387     -0.49862658     0.29595278    -0.51930009     6.3628701      6.3628701      6.3628701      0              0              0              0.8540111    
     38000   1.0868176      0.82500244    -3.3775481     -0.58634612     0.87684758     0.69656389     1.5087772      0.42520162    -0.42724148    -0.424863      -0.045696302    6.4365896      6.4365896      6.4365896      0              0              0              0.82500244   
     39000   1.1277766      0.86794739    -3.6900256     -1.030172       0.77061667     0.79691892     0.23393911     1.280992      -0.28020425     0.067799567    0.21454162     6.3286308      6.3286308      6.3286308      0              0              0              0.86794739   
     40000   1.0558845      0.85939187    -3.7907808     -1.9886187      0.17676478     0.044015752    0.8311668     -0.34488821     0.18617671    -0.013103197    0.37789811     6.3495627      6.3495627      6.3495627      0              0              0              0.85939187   
     41000   1.0411228      0.83400032    -3.5825566     -0.0095284347   1.5308853      0.87520794     1.9077513      1.8096966      0.26852523    -0.50366409    -0.24514402     6.4133581      6.4133581      6.4133581      0              0              0              0.83400032   
     42000   1.0958999      0.85615657    -3.6744227     -0.64130683     1.0876965      0.85804559     0.80935946     1.5956846      0.45568576     0.23562721    -0.21017656     6.3575506      6.3575506      6.3575506      0              0              0              0.85615657   
     43000   1.0794856      0.86110355    -3.5877174     -1.2067386      0.60265241     0.50058902     0.24741945     1.0599488     -0.19437408     0.4784977     -0.11327439     6.3453527      6.3453527      6.3453527      0              0              0              0.86110355   
     44000   1.0573884      0.85786944    -3.7394598     -1.5689423      0.4619747      0.7707612     -0.15054961     0.76571251     0.46458634    -0.60157983    -0.1985519      6.3533166      6.3533166      6.3533166      0              0              0              0.85786944   
     45000   1.0293297      0.85833719    -3.8990826     -2.0615722      0.23505628    -0.057971767    0.76674675    -0.003606142    0.028869549   -0.19680742    -0.50688919     6.3521623      6.3521623      6.3521623      0              0              0              0.85833719   
     46000   1.1540914      0.87234808    -3.8361427     -0.72201524     1.1036361      1.5843378      1.3176176      0.40895308     0.11125824    -0.087302877   -0.19957372     6.3179709      6.3179709      6.3179709      0              0              0              0.87234808   
     47000   1.1764732      0.85617013    -3.8194572     -1.1949679      0.67606543     0.58204551     0.3994635      1.0466873     -0.034808683    0.46977657     0.15404552     6.3575171      6.3575171      6.3575171      0              0              0              0.85617013   
     48000   0.94109314     0.88061248    -3.8603955     -0.13923592     1.8545523      1.4852156      2.9489676      1.1294738     -0.27968115     0.28084097     0.32772427     6.2981444      6.2981444      6.2981444      0              0              0              0.88061248   
     49000   1.0463283      0.86827677    -3.8291659     -1.0632351      0.95059396     0.36078535     0.83706314     1.6539334     -0.020505019    0.21915081    -0.02567885     6.3278304      6.3278304      6.3278304      0              0              0              0.86827677   
     50000   1.0735036      0.87774438    -3.7041438     -0.19511441     1.5215502      1.5326516      1.7877681      1.2442308     -0.2346398     -0.41320858     0.60881177     6.3049969      6.3049969      6.3049969      0              0              0              0.87774438   
     51000   1.0439751      0.90004056    -3.9284569     -0.35465333     1.6492594      1.0698446      2.1271435      1.75079        0.09030362    -0.34388014    -0.30848596     6.2524976      6.2524976      6.2524976      0              0              0              0.90004056   
     52000   0.98982432     0.8757358     -3.9938071     -1.8605163      0.52223944     1.6407899      0.29166065    -0.36573219    -0.21163143    -0.094649893    0.35167484     6.3098135      6.3098135      6.3098135      0              0              0              0.8757358    
     53000   0.9923208      0.88008685    -4.0910197     -1.5339552      0.86090551     1.1243101      0.86090265     0.59750376     0.12258972    -0.23694834     0.44138153     6.299398       6.299398       6.299398       0              0              0              0.88008685   
     54000   0.95803416     0.8991283     -4.0603362     -0.64492387     1.6229645      2.0450404      0.89737115     1.926482       0.086616028   -0.18301473     0.59817769     6.2546115      6.2546115      6.2546115      0              0              0              0.8991283    
     55000   0.9726917      0.8808315     -3.7927529     -1.26996        0.85764999     1.2074845      0.29341582     1.0720496     -0.258604      -0.087079786    0.12808343     6.2976224      6.2976224      6.2976224      0              0              0              0.8808315    
     56000   0.97043974     0.90760323    -4.095992      -1.240429       1.161057       1.075781       0.75330928     1.6540806     -0.66514374    -0.15275293     0.11405323     6.2350827      6.2350827      6.2350827      0              0              0              0.90760323   
     57000   0.79339526     0.88992644    -4.0213774     -1.6335796      0.97378612     1.4745407      0.49040856     0.95640911    -0.35576884     0.11980513     0.14422531     6.2760952      6.2760952      6.2760952      0              0              0              0.88992644   
     58000   0.87472869     0.88399788    -3.9326564     -1.0509343      1.2666802      1.9657691      1.4290458      0.40522566    -0.26877958    -0.001814679   -0.27279536     6.2900942      6.2900942      6.2900942      0              0              0              0.88399788   
     59000   0.88319947     0.92841392    -4.0630786     -0.10847805     2.2251763      1.9540459      2.0310419      2.6904411     -0.52587381     0.081420291    0.19984084     6.1881431      6.1881431      6.1881431      0              0              0              0.92841392   
     60000   0.89776867     0.89343698    -4.1716229     -2.0235007      0.65643452     0.71369565     0.75725239     0.4983555     -0.65011661     0.34575725     0.22080046     6.2678643      6.2678643      6.2678643      0              0              0              0.89343698   
     61000   0.92719855     0.90419057    -4.2370439     -2.6577961      0.16062037    -0.50978822     0.71464025     0.27700907    -0.28273501     0.056997052    0.3583034      6.2429171      6.2429171      6.2429171      0              0              0              0.90419057   
     62000   0.87028448     0.92299875    -4.1842776     -1.130358       1.4726194      1.3267602      1.844216       1.2468819      0.15989174     0.36002485    -0.42423813     6.2002213      6.2002213      6.2002213      0              0              0              0.92299875   
     63000   0.85350609     0.89899051    -4.2815012     -2.5086674      0.4077951      0.67219183     0.46102064     0.09017285     0.38399428    -0.052231227   -0.19089637     6.254931       6.254931       6.254931       0              0              0              0.89899051   
     64000   0.76596845     0.91751044    -4.2934214     -1.877066       1.0619328      0.88449005     1.1084236      1.1928848      0.67517732     0.36610615    -0.21918252     6.2125594      6.2125594      6.2125594      0              0              0              0.91751044   
     65000   0.89764828     0.91151129    -4.3515113     -2.5260747      0.40247084     0.14848989     0.53906429     0.51985835     0.10147639     0.13485741    -0.010638375    6.226159       6.226159       6.226159       0              0              0              0.91151129   
     66000   0.81643781     0.93326465    -4.2876928     -1.2200234      1.5688484      2.3754324      1.7213101      0.60980287    -0.25085848     0.57836981     0.24831068     6.1774033      6.1774033      6.1774033      0              0              0              0.93326465   
     67000   0.7925589      0.9369949     -4.2953882     -1.0172192      1.7847835      2.3615567      1.5157559      1.4770379      0.42609357    -0.086169567    0.15410343     6.1691948      6.1691948      6.1691948      0              0              0              0.9369949    
     68000   0.7431783      0.90835932    -4.3400921     -2.5271641      0.58113064     0.99736159     0.48676386     0.25926648     0.24219892    -0.17980284     0.15111277     6.2333522      6.2333522      6.2333522      0              0              0              0.90835932   
     69000   0.78010273     0.92947994    -4.4249712     -2.4024521      0.72517663     0.54353665     0.33747963     1.2945136     -0.064478054   -0.22527988     0.066561637    6.1857764      6.1857764      6.1857764      0              0              0              0.92947994   
     70000   0.78245455     0.95123908    -4.5185631     -1.8047677      1.3369077      1.6169418      1.2114986      1.1822828      0.49339397    -0.30937716    -0.15425174     6.1382466      6.1382466      6.1382466      0              0              0              0.95123908   
     71000   0.80306937     0.94599433    -4.505944      -2.1904985      0.96049765     1.1353741      0.84458697     0.90153194     0.13234979    -0.55323183     0.3471831      6.1495695      6.1495695      6.1495695      0              0              0              0.94599433   
     72000   0.73676245     0.9525584     -4.5579911     -0.8949706      2.2198096      2.1134025      2.5830466      1.9629798      0.16772265    -0.28287507    -0.35213951     6.1354114      6.1354114      6.1354114      0              0              0              0.9525584    
     73000   0.81252114     0.92647215    -4.5895012     -2.8191647      0.46967817    -0.10127744     0.66182098     0.84849097    -0.095552518   -0.077539781   -0.47361979     6.1924632      6.1924632      6.1924632      0              0              0              0.92647215   
     74000   0.7470877      0.93945913    -4.4991868     -1.7745023      1.3747328      1.0319212      1.7711864      1.3210909      0.068993534   -0.49871511    -0.2323905      6.1637961      6.1637961      6.1637961      0              0              0              0.93945913   
     75000   0.84153091     0.93120166    -4.4578727     -1.6812936      1.2872544      1.7429568      0.81196939     1.3068371     -0.37207316    -0.55795454    -0.72980332     6.1819617      6.1819617      6.1819617      0              0              0              0.93120166   
     76000   0.70734811     0.95278219    -4.5187536     -1.218631       1.944027       1.6676898      2.5036767      1.6607144      0.48586068    -0.49152899     0.14908671     6.134931       6.134931       6.134931       0              0              0              0.95278219   
     77000   0.68692465     0.93664235    -4.5488618     -3.5406687     -0.014511115    0.10962249    -0.58481486     0.43165902     0.25473769     0.082629789   -0.33795691     6.1699687      6.1699687      6.1699687      0              0              0              0.93664235   
     78000   0.7115516      0.95154426    -4.6522654     -2.2159821      1.1888183      1.0006946      1.2938249      1.2719355      0.10688963     0.15582007    -0.0057623655   6.1375903      6.1375903      6.1375903      0              0              0              0.95154426   
     79000   0.65158839     0.96224794    -4.7416908     -2.5155253      1.0966739      1.0306396      1.4261157      0.83326633     0.67888019     0.35640062     0.00016593586  6.114748       6.114748       6.114748       0              0              0              0.96224794   
     80000   0.69821096     0.95383859    -4.6863755     -2.8694826      0.67186052     0.70258777     0.24087413     1.0721197      0.60348688    -0.10130421     0.89935694     6.1326653      6.1326653      6.1326653      0              0              0              0.95383859   
     81000   0.65598175     0.97170334    -4.8303617     -2.5819375      1.1213204      0.80374002     1.1241171      1.4361041      0.59866795     0.26559682    -0.27729977     6.0948496      6.0948496      6.0948496      0              0              0              0.97170334   
     82000   0.60909168     0.93963088    -4.6434614     -3.1500842      0.49912155     0.60107451     0.79773297     0.098557164    0.10038999    -0.43809221     0.3426794      6.1634205      6.1634205      6.1634205      0              0              0              0.93963088   
     83000   0.68823332     0.95497568    -4.6831784     -2.1554115      1.3027419      1.8748078      0.8797803      1.1536376     -0.49770394     0.087534142   -0.045239369    6.1302303      6.1302303      6.1302303      0              0              0              0.95497568   
     84000   0.58616607     0.96381744    -4.7655444     -2.3368535      1.3614693      1.348658       1.3323826      1.4033672      0.076968595   -0.19191719     0.43022918     6.1114271      6.1114271      6.1114271      0              0              0              0.96381744   
     85000   0.6595891      0.95916696    -4.780106      -2.5308962      1.1028441      0.88600296     0.58015435     1.8423751     -0.33684084    -0.12030257     0.24999616     6.1212881      6.1212881      6.1212881      0              0              0              0.95916696   
     86000   0.66610679     0.97154364    -4.8092886     -2.2023872      1.4244039      1.5324683      1.4768344      1.2639091      0.14136562    -0.50431678    -0.27597818     6.0951836      6.0951836      6.0951836      0              0              0              0.97154364   
     87000   0.626812       0.97378361    -4.863881      -3.1500459      0.68901227     0.7480921      0.24460969     1.074335      -0.0035066041  -0.014690741   -0.22451786     6.0905064      6.0905064      6.0905064      0              0              0              0.97378361   
     88000   0.58590126     0.97370547    -4.9369362     -2.9946429      0.945234       0.5589159      0.80219425     1.4745918      0.13835087    -0.46761172    -0.094621612    6.0906694      6.0906694      6.0906694      0              0              0              0.97370547   
     89000   0.58972261     0.97941166    -4.9749995     -3.3340444      0.6773915      0.88147266     0.0064726992   1.1442291     -0.11314868    -0.73943887    -0.83881154     6.0788179      6.0788179      6.0788179      0              0              0              0.97941166   
     90000   0.62299838     0.97660227    -4.9771334     -3.1494207      0.79716279     0.74308346     0.91235479     0.73605011     0.17602515    -0.026001004   -0.085420721    6.0846413      6.0846413      6.0846413      0              0              0              0.97660227   
     91000   0.61615545     0.99180168    -4.9731929     -2.5272284      1.3762173      1.9362399      0.95503792     1.237374      -0.40518356    -0.39580478    -0.27361363     6.0533987      6.0533987      6.0533987      0              0              0              0.99180168   
     92000   0.55058515     0.97851474    -4.9131679     -3.1910893      0.80089679     0.94120502     0.14428378     1.3172016      0.12312004     0.21363184    -0.21294225     6.0806747      6.0806747      6.0806747      0              0              0              0.97851474   
     93000   0.51299931     0.98555991    -4.9679284     -2.8922853      1.1737047      0.60779797     1.8160914      1.0972247      0.078616804   -0.068309611   -0.073119427    6.066151       6.066151       6.066151       0              0              0              0.98555991   
     94000   0.5977149      0.99637241    -5.1316203     -2.7126381      1.3830488      1.5859496      1.617228       0.94596891    -0.17296265    -0.22715746    -0.35788175     6.0441281      6.0441281      6.0441281      0              0              0              0.99637241   
     95000   0.60429452     0.9675616     -4.9550584     -3.1411884      0.80216171     0.68377319     1.0999328      0.62277918     0.18116561     0.32709584     0.032201852    6.1035338      6.1035338      6.1035338      0              0              0              0.9675616    
     96000   0.55015883     0.99653293    -5.0987645     -2.6689023      1.4574295      1.565886       1.3464738      1.4599287      0.12771378     0.3074118     -0.29690795     6.0438036      6.0438036      6.0438036      0              0              0              0.99653293   
     97000   0.54915971     0.98031977    -4.9966129     -3.0990085      0.96069872     0.89346753     0.7056104      1.2830182      0.38157712     0.0759945      0.14853516     6.0769404      6.0769404      6.0769404      0              0              0              0.98031977   
     98000   0.50192545     1.0019654     -5.0854606     -2.5330326      1.6425895      1.6899952      1.4965298      1.7412435     -0.030743273    0.084561265   -0.16250373     6.0328609      6.0328609      6.0328609      0              0              0              1.0019654    
     99000   0.53772278     0.9807635     -5.1047948     -3.8648934      0.3899428      0.39707899     0.051495844    0.72125357     0.63332861    -0.1336087     -0.071770724    6.0760237      6.0760237      6.0760237      0              0              0              0.9807635    
    100000   0.50180325     0.99764186    -5.1825258     -3.1010198      1.2085657      0.23862525     2.0087276      1.3783441      0.016677419    0.22587703    -0.34713876     6.0415634      6.0415634      6.0415634      0              0              0              0.99764186   
    101000   0.51236274     0.98166769    -5.0562658     -3.5822162      0.6330402      0.43714387     0.76931179     0.69266495     0.58066482    -0.091604424    0.26056822     6.0741577      6.0741577      6.0741577      0              0              0              0.98166769   
    102000   0.47997297     1.0055284     -5.1945301     -2.7896245      1.5435282      1.4922427      1.5186937      1.6196481      0.32584035    -0.57363398     0.031932814    6.0257268      6.0257268      6.0257268      0              0              0              1.0055284    
    103000   0.46693421     0.98641608    -5.1071884     -3.479984       0.83424358     1.1720966      0.81679482     0.51383934    -0.047771761   -0.18361505    -0.31609343     6.0643954      6.0643954      6.0643954      0              0              0              0.98641608   
    104000   0.44761383     1.0017954     -5.2683077     -4.0036966      0.54328956     0.85581896     0.5296713      0.24437843     0.44331342    -0.094890949   -0.3236198      6.0332023      6.0332023      6.0332023      0              0              0              1.0017954    
    105000   0.45928486     1.0068777     -5.21516       -2.9921414      1.4073733      1.1923585      1.37574        1.6540213      0.2563525      0.015256693   -0.012151211    6.0230341      6.0230341      6.0230341      0              0              0              1.0068777    
    106000   0.44887869     1.0090477     -5.2700284     -3.7032341      0.82268835     1.2497536      0.69220807     0.52610341     0.14128012    -0.32611405     0.094502966    6.0187135      6.0187135      6.0187135      0              0              0              1.0090477    
    107000   0.40921952     0.99837903    -5.2334297     -3.7875545      0.75796491     0.74090004     0.6346598      0.8983349      0.30628707    -0.0044393672  -0.0054057917   6.0400761      6.0400761      6.0400761      0              0              0              0.99837903   
    108000   0.36686381     1.0076223     -5.3138221     -3.8110494      0.87500863     1.3503363      0.41027858     0.86441099     0.084529254    0.026039551   -0.17024255     6.02155        6.02155        6.02155        0              0              0              1.0076223    
    109000   0.40114392     1.0147552     -5.3340169     -3.7009952      0.95415991     1.2558722      1.0332136      0.57339387     0.028824567   -0.6860574     -0.28851097     6.0074081      6.0074081      6.0074081      0              0              0              1.0147552    
    110000   0.41006577     1.016246      -5.3050014     -3.4346124      1.1625539      1.1539672      1.467006       0.86668849     0.5183641      0.029823038   -0.021510507    6.004469       6.004469       6.004469       0              0              0              1.016246     
    111000   0.38279342     1.0205742     -5.3741245     -3.4991811      1.2094956      1.4296692      1.445225       0.75359272     0.504149      -0.059037132   -0.098934558    5.9959688      5.9959688      5.9959688      0              0              0              1.0205742    
    112000   0.39346695     1.0004782     -5.3558319     -4.6385569      0.11826158     0.46609791    -0.70647066     0.5951575      0.11885076    -0.22536987    -0.16287395     6.0358488      6.0358488      6.0358488      0              0              0              1.0004782    
    113000   0.34846031     1.0319032     -5.4460509     -3.0542521      1.7558506      1.7507079      1.7900617      1.7267823      0.31943394    -0.091224468   -0.081310507    5.9739452      5.9739452      5.9739452      0              0              0              1.0319032    
    114000   0.36420081     1.0194432     -5.3653877     -3.4154767      1.3033501      1.3566626      1.2385454      1.3148423      0.6918481     -0.55223025     0.36180376     5.9981853      5.9981853      5.9981853      0              0              0              1.0194432    
    115000   0.34819878     1.014841      -5.4146461     -4.2058368      0.63577255     0.75511158     0.44432356     0.70788249     0.38082276    -0.30408157     0.042142892    6.0072388      6.0072388      6.0072388      0              0              0              1.014841     
    116000   0.32872204     1.0239549     -5.4610181     -3.6424268      1.2361683      1.6138222      0.78268897     1.3119937      0.43672222    -0.17633978     0.094642008    5.9893628      5.9893628      5.9893628      0              0              0              1.0239549    
    117000   0.33366713     1.0183332     -5.4807228     -4.0478797      0.86543958     0.83153309     1.0606682      0.70411746    -0.062179918   -0.46514805    -0.17858176     6.000364       6.000364       6.000364       0              0              0              1.0183332    
    118000   0.32314135     1.0276485     -5.4465031     -3.7987354      1.0888209      1.2147054      0.68260471     1.3691526     -0.12684223    -0.46791514     0.10578161     5.9821785      5.9821785      5.9821785      0              0              0              1.0276485    
    119000   0.31634719     1.0290279     -5.4507228     -3.2625108      1.6053433      1.7195014      1.4896498      1.6068786      0.28858675     0.11203652    -0.2778617      5.9795042      5.9795042      5.9795042      0              0              0              1.0290279    
    120000   0.32057595     1.0229938     -5.5122523     -4.2238436      0.75324803     1.2095312      0.66314483     0.3870681      0.22622707    -0.061138333   -0.0059745523   5.9912378      5.9912378      5.9912378      0              0              0              1.0229938    
    121000   0.2595508      1.0237889     -5.4969619     -4.1231596      0.91808056     1.1255274      0.96431255     0.66440173     0.46562173    -0.045483246   -0.16366985     5.9896864      5.9896864      5.9896864      0              0              0              1.0237889    
    122000   0.27615458     1.0284648     -5.523321      -3.9248468      1.1091651      1.4481716      0.66971285     1.2096108      0.74121608    -0.24400558    -0.10410957     5.9805954      5.9805954      5.9805954      0              0              0              1.0284648    
    123000   0.28884239     1.0328703     -5.5305736     -3.7928235      1.2269117      1.8095464      0.46747979     1.403709       0.44494209    -0.31484987    -0.2455266      5.9720802      5.9720802      5.9720802      0              0              0              1.0328703    
    124000   0.28031078     1.0350644     -5.5628511     -3.8920121      1.1785386      1.3132443      0.72579472     1.4965767      0.84971673     0.053211891    0.025135034    5.9678574      5.9678574      5.9678574      0              0              0              1.0350644    
    125000   0.26110447     1.0218689     -5.5784664     -4.6479488      0.50240574     0.62148558     0.20085574     0.68487589     0.28194229     0.31795791    -0.0065879534   5.9934355      5.9934355      5.9934355      0              0              0              1.0218689    
    126000   0.22539112     1.0377715     -5.5896597     -4.0830484      1.1040144      1.4177322      1.0142643      0.88004683     0.54287924     0.040486105   -0.54037693     5.9626637      5.9626637      5.9626637      0              0              0              1.0377715    
    127000   0.23551443     1.037672      -5.6049807     -3.9255284      1.252703       1.7009794      1.1206531      0.93647661     0.25816909     0.026206744    0.17947327     5.9628543      5.9628543      5.9628543      0              0              0              1.037672     
    128000   0.22220538     1.0268118     -5.5831184     -4.4527508      0.74558307     1.086435       0.53469069     0.61562351    -0.030868707    0.3476879      0.12802204     5.9838029      5.9838029      5.9838029      0              0              0              1.0268118    
    129000   0.22195764     1.0412678     -5.6648977     -4.0663017      1.1996581      1.4200759      1.2243745      0.95452401     0.53419704    -0.29793274    -0.11671084     5.9559824      5.9559824      5.9559824      0              0              0              1.0412678    
    130000   0.22329349     1.0442339     -5.6387889     -4.0359635      1.2051976      1.4532075      0.97490502     1.1874804      0.20770898    -0.25395236    -0.23937483     5.950338       5.950338       5.950338       0              0              0              1.0442339    
    131000   0.19318826     1.0369358     -5.6787823     -4.5225781      0.81811476     0.65887123     0.93209627     0.86337678     0.54171821    -0.13602274    -0.39467978     5.964265       5.964265       5.964265       0              0              0              1.0369358    
    132000   0.1656888      1.0446717     -5.6815326     -4.0932946      1.2734999      1.3534437      0.88446711     1.5825891      0.40716275     0.039126193   -0.42279488     5.9495065      5.9495065      5.9495065      0              0              0              1.0446717    
    133000   0.18164988     1.0432058     -5.7102157     -4.4506936      0.93737703     1.274414       0.53670349     1.0010136      0.44830317    -0.22736549    -0.20230721     5.952292       5.952292       5.952292       0              0              0              1.0432058    
    134000   0.16414208     1.0422595     -5.7486133     -4.7176013      0.7447702      0.86466332     0.44267047     0.9269768      0.38462977    -0.19382755     0.23071404     5.9540929      5.9540929      5.9540929      0              0              0              1.0422595    
    135000   0.16354711     1.0490256     -5.7366307     -4.2500163      1.1849415      1.2300689      0.74743733     1.5773184      0.28048943     0.093039208   -0.24366089     5.9412642      5.9412642      5.9412642      0              0              0              1.0490256    
    136000   0.13391961     1.0502207     -5.732668      -4.2825628      1.1936523      1.4415369      0.77572547     1.3636945      0.35284902    -0.16993417     0.042261337    5.9390098      5.9390098      5.9390098      0              0              0              1.0502207    
    137000   0.1257186      1.0449335     -5.7717664     -4.8122384      0.73325171     0.96721112     0.65970085     0.57284315     0.51201184    -0.1961394     -0.14273532     5.9490096      5.9490096      5.9490096      0              0              0              1.0449335    
    138000   0.11935377     1.0481092     -5.7658187     -4.5271991      1.0104574      1.3591768      0.79825533     0.87393997     0.26867587    -0.14215664    -0.45220561     5.9429952      5.9429952      5.9429952      0              0              0              1.0481092    
    139000   0.12047271     1.0560242     -5.7937161     -4.3592171      1.2045334      1.4732349      0.90420812     1.2361572      0.32343612    -0.31473268     0.036322713    5.9281102      5.9281102      5.9281102      0              0              0              1.0560242    
    140000   0.099190268    1.0462813     -5.8094226     -4.8446392      0.77685619     1.1054664      0.078637413    1.1464648      0.18606363    -0.38613578    -0.16813862     5.9464542      5.9464542      5.9464542      0              0              0              1.0462813    
Loop time of 73.986 on 1 procs for 140000 steps with 200 atoms

Performance: 326980.992 tau/day, 1892.251 timesteps/s
50.0% CPU use with 1 MPI tasks x 1 OpenMP threads

MPI task timing breakdown:
Section |  min time  |  avg time  |  max time  |%varavg| %total
---------------------------------------------------------------
Pair    | 65.533     | 65.533     | 65.533     |   0.0 | 88.57
Bond    | 1.0855     | 1.0855     | 1.0855     |   0.0 |  1.47
Neigh   | 0.34847    | 0.34847    | 0.34847    |   0.0 |  0.47
Comm    | 3.5816     | 3.5816     | 3.5816     |   0.0 |  4.84
Output  | 0.83275    | 0.83275    | 0.83275    |   0.0 |  1.13
Modify  | 1.8004     | 1.8004     | 1.8004     |   0.0 |  2.43
Other   |            | 0.8043     |            |       |  1.09

Nlocal:            200 ave         200 max         200 min
Histogram: 1 0 0 0 0 0 0 0 0 0
Nghost:           4311 ave        4311 max        4311 min
Histogram: 1 0 0 0 0 0 0 0 0 0
Neighs:          61875 ave       61875 max       61875 min
Histogram: 1 0 0 0 0 0 0 0 0 0

Total # of neighbors = 61875
Ave neighs/atom = 309.375
Ave special neighs/atom = 8.35
Neighbor list builds = 116
Dangerous builds = 0
System init for write_data ...
Generated 0 of 1 mixed pair_coeff terms from geometric mixing rule
WARNING: Not all mixed pair coeffs generated from mixing. Use write_data with 'pair ij' option to store all pair coeffs. (src/write_data.cpp:309)
Total wall time: 0:01:14
