Generated by ZY

96 atoms
1 atom types
136 bonds
1 bond types

0.0000000000000000 40.0000000000000000 xlo xhi
0.0000000000000000 40.0000000000000000 ylo yhi
0.0000000000000000 40.0000000000000000 zlo zhi

Masses

1 1.000

Atoms # full

1 1 1 0.000000 26.739821 17.544402 18.313687 0 0 0
2 1 1 0.000000 37.859569 5.138097 16.882104 0 0 0
3 1 1 0.000000 35.786280 27.224150 5.580207 0 0 0
4 1 1 0.000000 0.774183 1.723010 1.813971 1 1 0
5 1 1 0.000000 24.900745 21.342195 26.337842 0 0 0
6 1 1 0.000000 14.780005 13.946768 0.499118 0 0 0
7 1 1 0.000000 9.583848 6.998697 35.144299 1 0 -1
8 1 1 0.000000 2.152146 1.451385 31.897736 1 0 0
9 1 1 0.000000 35.573936 33.677531 38.448816 0 0 0
10 1 1 0.000000 27.938696 19.487463 34.641756 0 0 -1
11 1 1 0.000000 37.060927 36.162495 8.753010 0 0 0
12 1 1 0.000000 32.730123 12.435768 5.205612 0 0 1
13 1 1 0.000000 2.349416 26.364776 38.041345 0 1 0
14 1 1 0.000000 19.521305 6.960141 30.111843 0 0 0
15 1 1 0.000000 39.388156 18.447143 8.479423 0 0 0
16 1 1 0.000000 6.541437 25.979254 29.138863 0 0 0
17 1 1 0.000000 25.882071 5.889135 3.911127 0 0 0
18 1 1 0.000000 17.943448 5.868313 18.228690 0 0 0
19 1 1 0.000000 11.645655 15.083595 31.331947 0 0 0
20 1 1 0.000000 30.845293 19.923843 9.905669 0 0 0
21 1 1 0.000000 7.471442 7.275045 3.561702 0 0 0
22 1 1 0.000000 17.423756 21.247716 18.241183 0 0 0
23 1 1 0.000000 28.329862 26.602442 19.663049 0 0 0
24 1 1 0.000000 7.087501 6.476570 15.236128 0 0 0
25 1 1 0.000000 35.933469 19.286961 39.283740 0 -1 0
26 1 1 0.000000 24.148394 14.514821 2.580317 0 0 1
27 1 1 0.000000 29.030476 37.847926 4.148927 0 0 1
28 1 1 0.000000 30.293886 31.055938 11.142933 0 0 0
29 1 1 0.000000 5.931125 0.251655 9.626528 1 0 0
30 1 1 0.000000 8.066267 14.746961 9.640203 0 0 0
31 1 1 0.000000 26.450214 12.380235 28.984782 0 0 0
32 1 1 0.000000 3.504716 11.288518 28.497860 0 0 0
33 1 1 0.000000 38.932294 28.724563 13.663263 0 -1 0
34 1 1 0.000000 33.495363 26.477430 33.591227 0 0 0
35 1 1 0.000000 39.358992 33.220968 29.331517 0 -1 0
36 1 1 0.000000 28.042875 24.801654 3.258063 0 0 1
37 1 1 0.000000 35.270989 16.991101 29.156182 0 0 0
38 1 1 0.000000 35.486907 0.840242 24.845541 0 0 0
39 1 1 0.000000 33.542236 4.838258 8.930738 0 0 0
40 1 1 0.000000 16.816944 5.619505 1.494070 0 0 0
41 1 1 0.000000 29.970412 10.561477 36.592888 0 0 0
42 1 1 0.000000 13.178786 29.773578 20.346887 0 0 0
43 1 1 0.000000 16.815017 38.043159 23.963378 0 0 0
44 1 1 0.000000 7.277094 36.213021 24.734265 0 0 0
45 1 1 0.000000 36.787449 24.243237 25.284994 0 0 0
46 1 1 0.000000 7.257676 31.598476 13.398037 0 0 0
47 1 1 0.000000 5.962649 21.527042 16.278039 0 0 0
48 1 1 0.000000 12.693544 39.505055 31.187348 -1 0 0
49 1 1 0.000000 11.590486 38.343299 17.043746 -1 0 0
50 1 1 0.000000 2.114790 37.121789 17.583465 0 0 0
51 1 1 0.000000 26.657844 8.082559 20.837719 0 0 0
52 1 1 0.000000 31.322362 38.851127 15.750373 -1 0 0
53 1 1 0.000000 12.036732 22.743022 37.211960 0 0 0
54 1 1 0.000000 32.784283 2.044720 37.545712 0 0 0
55 1 1 0.000000 2.566802 19.146716 32.866025 0 1 0
56 1 1 0.000000 15.863391 22.202680 27.146154 0 0 0
57 1 1 0.000000 6.789544 33.745886 34.986801 0 0 -1
58 1 1 0.000000 5.983887 18.974693 24.364806 0 0 0
59 1 1 0.000000 14.799374 38.717037 7.694279 0 0 0
60 1 1 0.000000 34.855698 32.819341 21.378452 0 0 0
61 1 1 0.000000 23.368799 24.556817 12.727899 0 0 0
62 1 1 0.000000 25.236575 38.367596 22.490567 0 0 0
63 1 1 0.000000 5.283359 17.653853 0.873367 0 0 0
64 1 1 0.000000 13.578962 30.765345 29.398170 0 0 0
65 1 1 0.000000 3.462490 4.145764 23.338622 1 0 0
66 1 1 0.000000 12.063695 6.981570 25.757148 0 0 0
67 1 1 0.000000 5.895475 24.172170 7.193142 0 0 0
68 1 1 0.000000 35.095876 10.443671 23.659652 0 0 0
69 1 1 0.000000 17.923900 16.808655 9.671063 0 0 0
70 1 1 0.000000 36.126730 7.689419 31.737026 0 -1 0
71 1 1 0.000000 1.965196 13.021503 17.974147 0 0 0
72 1 1 0.000000 13.803366 8.303814 10.147543 0 0 0
73 1 1 0.000000 39.839358 11.430804 38.388020 0 0 0
74 1 1 0.000000 28.359269 2.753322 30.430549 0 0 0
75 1 1 0.000000 14.093881 31.409462 0.044554 0 0 0
76 1 1 0.000000 21.155927 29.284545 24.088750 0 0 0
77 1 1 0.000000 4.256151 29.081901 21.198608 0 0 0
78 1 1 0.000000 19.680788 33.421057 15.913258 0 0 0
79 1 1 0.000000 20.072648 15.575304 33.593408 0 0 0
80 1 1 0.000000 22.458171 32.916441 7.478730 0 0 1
81 1 1 0.000000 35.559045 21.869360 17.483592 0 0 0
82 1 1 0.000000 11.340872 14.485223 17.762058 0 0 0
83 1 1 0.000000 4.728721 33.557691 3.820017 0 0 0
84 1 1 0.000000 14.533949 26.020155 9.710378 0 0 0
85 1 1 0.000000 26.389129 31.185323 37.158459 0 0 0
86 1 1 0.000000 20.197744 26.428156 33.486546 0 0 0
87 1 1 0.000000 19.092869 14.203795 24.114731 0 0 0
88 1 1 0.000000 10.413755 39.635400 39.891364 0 0 -1
89 1 1 0.000000 25.277120 10.223214 12.320281 0 0 0
90 1 1 0.000000 1.014493 9.268476 8.800964 0 1 0
91 1 1 0.000000 22.919534 1.359662 11.316532 0 0 0
92 1 1 0.000000 20.512747 38.036526 0.574462 -1 0 1
93 1 1 0.000000 29.199919 31.797500 28.037833 0 0 0
94 1 1 0.000000 19.482661 22.274634 2.709725 0 0 0
95 1 1 0.000000 33.439546 12.740170 14.740294 0 0 0
96 1 1 0.000000 21.192329 36.363326 31.325375 0 0 0

Bonds

1 1 19 26
2 1 62 70
3 1 21 51
4 1 20 28
5 1 8 28
6 1 91 95
7 1 46 51
8 1 46 47
9 1 9 73
10 1 12 82
11 1 53 55
12 1 18 39
13 1 33 60
14 1 37 71
15 1 77 82
16 1 4 22
17 1 62 78
18 1 48 72
19 1 4 59
20 1 58 74
21 1 10 77
22 1 36 80
23 1 39 82
24 1 61 84
25 1 3 83
26 1 3 38
27 1 69 76
28 1 30 79
29 1 18 43
30 1 51 55
31 1 15 83
32 1 64 79
33 1 37 43
34 1 47 75
35 1 7 75
36 1 40 86
37 1 70 73
38 1 9 27
39 1 38 73
40 1 2 67
41 1 2 87
42 1 72 94
43 1 23 84
44 1 12 32
45 1 48 75
46 1 8 41
47 1 76 86
48 1 72 90
49 1 52 92
50 1 4 93
51 1 24 58
52 1 53 83
53 1 87 95
54 1 94 95
55 1 68 79
56 1 60 91
57 1 45 49
58 1 34 74
59 1 26 64
60 1 1 22
61 1 1 91
62 1 17 88
63 1 9 35
64 1 5 11
65 1 3 94
66 1 21 89
67 1 7 55
68 1 10 70
69 1 16 34
70 1 32 33
71 1 39 71
72 1 66 88
73 1 47 63
74 1 35 65
75 1 6 29
76 1 54 59
77 1 44 50
78 1 1 15
79 1 28 53
80 1 58 69
81 1 8 52
82 1 11 31
83 1 21 92
84 1 13 64
85 1 71 92
86 1 63 85
87 1 76 96
88 1 34 84
89 1 18 19
90 1 20 60
91 1 35 85
92 1 31 81
93 1 20 63
94 1 61 69
95 1 44 74
96 1 80 85
97 1 48 50
98 1 42 52
99 1 37 57
100 1 2 93
101 1 24 68
102 1 10 54
103 1 45 90
104 1 31 88
105 1 23 80
106 1 14 17
107 1 78 89
108 1 15 42
109 1 57 86
110 1 54 65
111 1 46 61
112 1 27 33
113 1 42 77
114 1 32 45
115 1 6 87
116 1 6 25
117 1 30 90
118 1 25 57
119 1 30 67
120 1 43 96
121 1 56 65
122 1 23 41
123 1 40 59
124 1 17 41
125 1 26 66
126 1 50 62
127 1 7 38
128 1 11 25
129 1 49 67
130 1 40 89
131 1 36 81
132 1 19 49
133 1 5 16
134 1 22 78
135 1 13 36
136 1 5 81

