Generated by ZY code

187 atoms
1 atom types
266 bonds
1 bond types
0 angles
0 angle types
0 dihedrals
0 dihedral types
0 impropers
0 improper types

0.0000000000000000 50.0000000000000000 xlo xhi
0.0000000000000000 50.0000000000000000 ylo yhi
0.0000000000000000 50.0000000000000000 zlo zhi

Masses

1 1.000

Atoms # full

1 1 1 0.000000 24.959565 46.901388 9.467232 0 0 0
2 1 1 0.000000 37.403353 32.039014 45.690558 0 0 0
3 1 1 0.000000 32.539196 31.648760 24.042373 0 0 0
4 1 1 0.000000 3.088980 42.569225 16.471404 -1 0 0
5 1 1 0.000000 34.172918 40.869682 24.181393 0 0 0
6 1 1 0.000000 40.130000 46.494042 19.266139 0 0 0
7 1 1 0.000000 9.653881 20.022875 21.280464 0 0 0
8 1 1 0.000000 37.998598 36.084056 3.674149 0 0 0
9 1 1 0.000000 5.806756 23.652854 4.268120 0 0 0
10 1 1 0.000000 3.888952 32.241062 1.270078 0 0 0
11 1 1 0.000000 44.511800 29.320391 7.457410 0 -1 0
12 1 1 0.000000 33.451036 16.625526 3.955918 0 0 0
13 1 1 0.000000 4.032772 19.987280 27.874782 0 0 0
14 1 1 0.000000 47.834999 45.949255 9.039828 -1 0 0
15 1 1 0.000000 19.445904 13.352548 6.813648 0 0 0
16 1 1 0.000000 24.529788 16.693886 41.018084 0 0 0
17 1 1 0.000000 46.377336 3.086419 21.057210 1 0 0
18 1 1 0.000000 32.224220 8.554100 24.534205 0 0 0
19 1 1 0.000000 18.836094 32.864057 47.289624 0 0 0
20 1 1 0.000000 17.235938 31.633352 37.638497 0 0 0
21 1 1 0.000000 11.268207 16.141981 5.871848 0 0 1
22 1 1 0.000000 2.778675 34.174703 40.911141 0 0 0
23 1 1 0.000000 45.034205 36.685944 44.493460 0 0 -1
24 1 1 0.000000 19.059016 1.006657 46.251120 0 0 0
25 1 1 0.000000 11.740598 25.791939 44.626061 0 0 0
26 1 1 0.000000 34.996754 48.176520 39.974672 0 0 0
27 1 1 0.000000 15.412489 43.699895 44.150994 0 0 0
28 1 1 0.000000 41.979280 45.306392 44.969336 0 0 0
29 1 1 0.000000 21.688878 24.779352 42.972837 0 0 0
30 1 1 0.000000 29.218298 30.229422 40.298608 0 0 0
31 1 1 0.000000 5.597671 49.204023 5.254443 0 0 0
32 1 1 0.000000 10.550777 34.659962 43.589754 0 0 0
33 1 1 0.000000 16.514643 6.767609 29.682767 0 0 0
34 1 1 0.000000 27.357285 3.767629 15.131471 0 0 0
35 1 1 0.000000 37.421647 26.150121 2.331191 0 0 0
36 1 1 0.000000 43.175064 15.455990 16.180021 0 0 0
37 1 1 0.000000 0.358008 12.772681 31.341496 0 1 0
38 1 1 0.000000 17.644125 40.857480 33.842893 0 0 0
39 1 1 0.000000 24.662776 42.885693 18.196960 0 0 0
40 1 1 0.000000 44.239711 11.005223 24.372970 0 0 0
41 1 1 0.000000 5.584884 1.466840 22.295503 1 0 0
42 1 1 0.000000 18.344816 41.624352 11.755807 0 0 0
43 1 1 0.000000 1.714760 15.500678 20.435788 0 0 0
44 1 1 0.000000 9.393472 36.373146 19.635603 0 0 0
45 1 1 0.000000 49.273115 43.446529 40.372988 0 0 0
46 1 1 0.000000 19.513440 8.962599 14.861213 0 0 0
47 1 1 0.000000 16.096328 18.966214 48.157122 0 0 0
48 1 1 0.000000 30.232413 40.338372 5.787170 0 0 0
49 1 1 0.000000 14.097235 17.292309 14.314546 0 0 0
50 1 1 0.000000 44.137118 29.218677 38.611506 0 0 0
51 1 1 0.000000 40.973842 40.003929 11.587192 0 0 0
52 1 1 0.000000 4.948262 17.028839 11.046573 0 0 0
53 1 1 0.000000 8.536705 43.446991 38.298114 0 0 0
54 1 1 0.000000 15.035878 16.927419 39.531756 0 0 0
55 1 1 0.000000 19.362169 10.079278 47.545774 0 0 0
56 1 1 0.000000 18.334329 32.369125 26.434817 0 0 0
57 1 1 0.000000 13.660878 39.263285 26.648866 0 0 0
58 1 1 0.000000 45.828392 47.981087 31.654293 0 0 0
59 1 1 0.000000 15.353934 13.009976 22.321899 0 0 0
60 1 1 0.000000 8.866022 49.534765 46.967014 0 0 -1
61 1 1 0.000000 47.339986 5.375381 4.694348 0 -1 0
62 1 1 0.000000 3.938898 39.196427 7.516570 0 1 0
63 1 1 0.000000 27.711866 0.211644 29.425513 0 0 0
64 1 1 0.000000 13.469637 6.872449 2.838825 0 0 0
65 1 1 0.000000 34.711698 5.734711 10.357642 0 0 1
66 1 1 0.000000 48.986411 48.966142 49.261928 0 0 0
67 1 1 0.000000 11.049449 9.427829 42.981768 0 0 0
68 1 1 0.000000 34.542862 26.841320 34.743782 0 0 0
69 1 1 0.000000 36.286559 31.594642 12.404911 0 0 0
70 1 1 0.000000 4.261408 6.623314 47.813627 1 0 -1
71 1 1 0.000000 5.813596 8.778743 6.121591 0 0 0
72 1 1 0.000000 28.015375 10.465689 7.313210 0 0 0
73 1 1 0.000000 31.986349 14.211490 36.384486 0 0 0
74 1 1 0.000000 33.039369 16.224451 44.857030 0 0 0
75 1 1 0.000000 5.367546 43.649214 29.066133 0 0 0
76 1 1 0.000000 1.711673 36.700395 24.934443 0 0 0
77 1 1 0.000000 10.118949 44.457922 11.356487 0 0 0
78 1 1 0.000000 20.631376 35.745496 5.250847 0 0 0
79 1 1 0.000000 43.075335 14.042395 38.158249 0 0 0
80 1 1 0.000000 1.946419 4.514102 30.104527 0 1 0
81 1 1 0.000000 15.156281 47.657670 4.138031 -1 0 1
82 1 1 0.000000 30.808328 0.006491 1.926961 0 0 0
83 1 1 0.000000 31.970814 49.104454 20.932148 -1 0 0
84 1 1 0.000000 39.076585 22.297303 40.886209 0 0 0
85 1 1 0.000000 48.175363 23.767840 15.499537 0 0 0
86 1 1 0.000000 1.951120 28.681669 31.118737 0 0 0
87 1 1 0.000000 24.088926 39.488399 25.805035 0 0 0
88 1 1 0.000000 4.161891 30.347330 9.724934 0 0 0
89 1 1 0.000000 47.859458 19.229757 44.219592 0 -1 0
90 1 1 0.000000 35.846330 16.550270 20.937278 0 0 0
91 1 1 0.000000 27.345370 21.724058 34.625270 0 0 0
92 1 1 0.000000 21.471356 3.707245 5.887404 0 0 0
93 1 1 0.000000 34.494497 4.862396 32.880379 0 0 0
94 1 1 0.000000 12.315259 34.306318 11.321582 0 0 0
95 1 1 0.000000 24.497414 33.298585 32.788127 0 0 0
96 1 1 0.000000 42.230173 2.069434 12.291772 0 0 0
97 1 1 0.000000 4.209090 0.850224 38.659746 0 1 0
98 1 1 0.000000 11.916606 38.516117 1.825813 0 0 0
99 1 1 0.000000 43.959615 20.145165 24.294312 0 0 0
100 1 1 0.000000 26.480573 32.803444 16.006108 0 0 0
101 1 1 0.000000 25.390962 17.058990 0.261863 0 0 1
102 1 1 0.000000 27.605812 35.478528 47.750317 0 0 0
103 1 1 0.000000 41.370809 18.205917 0.759484 0 0 0
104 1 1 0.000000 23.034336 37.395303 40.590778 0 0 0
105 1 1 0.000000 27.204020 13.128470 19.009206 0 0 0
106 1 1 0.000000 49.031672 9.866206 13.045523 0 0 0
107 1 1 0.000000 33.300980 15.388175 12.633832 0 0 0
108 1 1 0.000000 41.381182 31.884109 29.605005 0 0 0
109 1 1 0.000000 35.882270 7.018841 42.741173 0 0 0
110 1 1 0.000000 27.722333 8.541813 48.024138 0 0 0
111 1 1 0.000000 4.949504 27.951113 19.272107 0 0 0
112 1 1 0.000000 32.460889 36.297410 31.822460 0 0 0
113 1 1 0.000000 17.825367 22.310360 5.868719 0 0 0
114 1 1 0.000000 24.087131 26.444585 1.439122 0 0 1
115 1 1 0.000000 44.692831 7.985629 47.136193 0 0 -1
116 1 1 0.000000 46.611543 37.539063 3.770605 0 0 0
117 1 1 0.000000 19.335442 47.427836 24.532737 0 0 0
118 1 1 0.000000 26.136682 26.761632 26.629391 0 0 0
119 1 1 0.000000 40.101695 46.585007 4.278643 0 0 0
120 1 1 0.000000 20.049749 21.252304 23.979126 0 0 0
121 1 1 0.000000 21.014460 28.223994 11.189976 0 0 0
122 1 1 0.000000 21.199709 49.631575 36.186088 -1 0 0
123 1 1 0.000000 14.794214 28.161831 19.165594 0 0 0
124 1 1 0.000000 20.440332 15.475261 32.615581 0 0 0
125 1 1 0.000000 48.064145 20.152475 7.351113 0 -1 0
126 1 1 0.000000 30.734443 24.336933 46.586883 0 0 0
127 1 1 0.000000 37.863667 6.009730 18.668399 0 0 0
128 1 1 0.000000 41.268437 35.562176 20.373356 0 0 0
129 1 1 0.000000 26.174071 8.757190 30.814761 0 0 0
130 1 1 0.000000 11.013843 24.834280 11.541420 0 0 0
131 1 1 0.000000 13.244871 29.862565 3.557902 0 0 0
132 1 1 0.000000 27.085996 42.744995 34.233659 0 0 0
133 1 1 0.000000 2.529574 1.973501 14.004121 1 0 0
134 1 1 0.000000 19.937328 49.936497 15.496817 0 0 0
135 1 1 0.000000 39.727267 21.801102 10.330672 0 0 0
136 1 1 0.000000 6.191621 17.417737 47.897110 0 0 0
137 1 1 0.000000 42.232928 22.127556 32.356420 0 0 0
138 1 1 0.000000 27.257690 47.102998 42.618729 -1 0 0
139 1 1 0.000000 41.682053 40.391307 28.101189 0 0 0
140 1 1 0.000000 34.885748 45.319787 31.774587 0 0 0
141 1 1 0.000000 12.116976 49.183505 30.756151 -1 0 0
142 1 1 0.000000 10.159093 27.698650 27.475680 0 0 0
143 1 1 0.000000 14.110103 4.139100 21.462685 0 0 0
144 1 1 0.000000 19.037780 8.386614 38.304774 0 0 0
145 1 1 0.000000 39.733571 1.367044 26.298577 0 0 0
146 1 1 0.000000 37.723751 13.762283 29.343596 0 0 0
147 1 1 0.000000 42.828555 6.772986 31.974768 0 0 0
148 1 1 0.000000 35.520115 23.536416 27.005525 0 0 0
149 1 1 0.000000 13.460618 1.820761 39.282726 0 0 0
150 1 1 0.000000 12.491421 18.094980 30.402918 0 0 0
151 1 1 0.000000 12.297162 4.142732 11.428263 0 0 0
152 1 1 0.000000 29.909873 22.667889 8.791649 0 0 0
153 1 1 0.000000 48.235448 34.489914 14.666450 0 -1 0
154 1 1 0.000000 18.561334 24.628306 32.325650 0 0 0
155 1 1 0.000000 32.134143 38.554446 40.413119 0 0 0
156 1 1 0.000000 9.008259 9.044917 34.148888 0 0 0
157 1 1 0.000000 28.906754 17.285719 26.892089 0 0 0
158 1 1 0.000000 33.283269 46.443777 11.950716 0 0 0
159 1 1 0.000000 48.530051 44.696127 23.584344 0 0 0
160 1 1 0.000000 37.619702 5.589900 2.021835 0 0 0
161 1 1 0.000000 33.276063 38.625908 15.905655 0 0 0
162 1 1 0.000000 3.458418 26.083739 44.181087 0 0 0
163 1 1 0.000000 30.259134 31.280465 5.488956 0 0 0
164 1 1 0.000000 12.016046 45.158598 20.149947 0 0 0
165 1 1 0.000000 0.644014 9.357280 39.500567 0 1 0
166 1 1 0.000000 44.711134 2.491781 39.816188 0 0 0
167 1 1 0.000000 8.823540 10.461411 17.095439 0 0 0
168 1 1 0.000000 49.326595 38.234929 33.459734 0 0 0
169 1 1 0.000000 49.429407 21.820280 36.023042 0 0 0
170 1 1 0.000000 7.344271 10.851765 25.493618 0 0 0
171 1 1 0.000000 45.163950 27.718140 48.047962 0 -1 -1
172 1 1 0.000000 23.279877 19.507082 14.181822 0 0 0
173 1 1 0.000000 9.290845 26.363361 35.937056 0 0 0
174 1 1 0.000000 5.754600 16.935424 38.589698 0 0 0
175 1 1 0.000000 22.795479 5.531675 22.472137 0 0 0
176 1 1 0.000000 30.609724 23.693623 17.888088 0 0 0
177 1 1 0.000000 34.357924 42.302953 48.367857 -1 0 -1
178 1 1 0.000000 40.420130 37.692937 36.160795 0 0 0
179 1 1 0.000000 3.734001 40.518125 48.133511 0 0 -1
180 1 1 0.000000 39.358088 25.456056 19.228780 0 0 0
181 1 1 0.000000 40.938034 11.724084 7.853895 0 0 0
182 1 1 0.000000 8.874654 35.126897 33.348287 0 0 0
183 1 1 0.000000 27.181372 5.451473 39.380845 0 0 0
184 1 1 0.000000 47.261137 29.167514 23.569837 0 0 0
185 1 1 0.000000 49.550867 13.248723 1.761357 0 0 0
186 1 1 0.000000 18.901984 36.059472 18.358828 0 0 0
187 1 1 0.000000 22.955210 43.165757 49.784757 0 0 -1

Bonds

1 1 50 182
2 1 57 66
3 1 1 139
4 1 31 177
5 1 95 105
6 1 50 119
7 1 80 154
8 1 42 96
9 1 116 140
10 1 12 130
11 1 161 172
12 1 38 60
13 1 148 176
14 1 91 119
15 1 7 61
16 1 38 75
17 1 38 187
18 1 35 100
19 1 66 122
20 1 72 172
21 1 8 71
22 1 59 174
23 1 172 182
24 1 88 138
25 1 40 83
26 1 10 71
27 1 24 55
28 1 53 94
29 1 136 156
30 1 3 186
31 1 29 94
32 1 128 168
33 1 16 112
34 1 107 175
35 1 138 155
36 1 12 82
37 1 122 157
38 1 93 145
39 1 20 60
40 1 158 180
41 1 142 174
42 1 13 56
43 1 31 36
44 1 12 133
45 1 120 152
46 1 69 111
47 1 16 114
48 1 80 86
49 1 37 141
50 1 115 161
51 1 19 23
52 1 68 171
53 1 112 122
54 1 22 128
55 1 42 151
56 1 64 113
57 1 74 181
58 1 61 135
59 1 81 183
60 1 33 145
61 1 46 142
62 1 6 63
63 1 9 150
64 1 24 149
65 1 34 146
66 1 92 185
67 1 39 75
68 1 70 92
69 1 2 69
70 1 159 179
71 1 13 170
72 1 99 127
73 1 4 14
74 1 106 165
75 1 36 135
76 1 80 164
77 1 103 152
78 1 63 132
79 1 21 60
80 1 1 92
81 1 39 139
82 1 73 98
83 1 27 164
84 1 150 182
85 1 44 186
86 1 28 104
87 1 87 119
88 1 141 157
89 1 9 100
90 1 131 185
91 1 42 145
92 1 59 151
93 1 68 177
94 1 68 137
95 1 44 111
96 1 69 176
97 1 7 111
98 1 135 163
99 1 39 141
100 1 37 104
101 1 4 185
102 1 53 62
103 1 2 160
104 1 77 164
105 1 169 187
106 1 86 143
107 1 30 118
108 1 3 48
109 1 23 49
110 1 120 168
111 1 170 173
112 1 7 166
113 1 33 46
114 1 55 109
115 1 150 174
116 1 75 85
117 1 76 161
118 1 24 101
119 1 5 57
120 1 127 170
121 1 29 95
122 1 21 110
123 1 2 32
124 1 31 88
125 1 103 139
126 1 72 149
127 1 94 187
128 1 21 81
129 1 64 107
130 1 88 179
131 1 103 144
132 1 34 138
133 1 19 169
134 1 34 107
135 1 43 123
136 1 99 142
137 1 1 125
138 1 87 166
139 1 153 162
140 1 113 166
141 1 53 76
142 1 56 131
143 1 77 85
144 1 43 165
145 1 17 41
146 1 85 106
147 1 105 137
148 1 18 46
149 1 108 131
150 1 77 159
151 1 14 66
152 1 35 115
153 1 29 115
154 1 100 154
155 1 160 175
156 1 32 98
157 1 45 168
158 1 33 120
159 1 101 110
160 1 93 95
161 1 9 41
162 1 13 143
163 1 114 130
164 1 11 76
165 1 84 101
166 1 5 82
167 1 3 108
168 1 59 126
169 1 8 153
170 1 108 186
171 1 87 117
172 1 22 102
173 1 63 178
174 1 30 152
175 1 48 128
176 1 37 159
177 1 83 93
178 1 52 64
179 1 4 48
180 1 35 163
181 1 79 143
182 1 45 79
183 1 132 147
184 1 18 74
185 1 51 65
186 1 52 124
187 1 118 147
188 1 158 177
189 1 73 117
190 1 10 40
191 1 50 112
192 1 22 47
193 1 79 184
194 1 73 176
195 1 127 129
196 1 54 169
197 1 118 154
198 1 14 179
199 1 58 96
200 1 97 165
201 1 113 124
202 1 47 78
203 1 23 45
204 1 20 149
205 1 125 171
206 1 163 178
207 1 148 153
208 1 74 82
209 1 117 134
210 1 55 58
211 1 41 97
212 1 17 43
213 1 109 156
214 1 8 104
215 1 28 72
216 1 5 144
217 1 20 30
218 1 57 70
219 1 17 36
220 1 133 134
221 1 56 151
222 1 78 121
223 1 6 61
224 1 136 184
225 1 86 146
226 1 99 125
227 1 81 102
228 1 62 133
229 1 62 96
230 1 19 124
231 1 32 132
232 1 44 116
233 1 40 109
234 1 90 157
235 1 16 183
236 1 47 116
237 1 18 97
238 1 49 67
239 1 15 90
240 1 27 67
241 1 26 146
242 1 15 49
243 1 70 156
244 1 15 158
245 1 84 110
246 1 114 162
247 1 71 98
248 1 83 144
249 1 6 65
250 1 137 184
251 1 121 130
252 1 90 180
253 1 26 147
254 1 91 155
255 1 52 180
256 1 162 173
257 1 11 51
258 1 106 140
259 1 134 175
260 1 26 91
261 1 148 171
262 1 28 51
263 1 136 173
264 1 105 181
265 1 123 167
266 1 123 155

