Generated by ZY code

187 atoms
1 atom types
266 bonds
1 bond types
0 angles
0 angle types
0 dihedrals
0 dihedral types
0 impropers
0 improper types

0.0000000000000000 50.0000000000000000 xlo xhi
0.0000000000000000 50.0000000000000000 ylo yhi
0.0000000000000000 50.0000000000000000 zlo zhi

Masses

1 1.000

Atoms # full

1 1 1 0.000000 26.140184 36.784101 24.328852 0 0 0
2 1 1 0.000000 46.675583 30.483705 27.828918 0 -1 0
3 1 1 0.000000 37.535633 11.092402 38.080520 0 0 0
4 1 1 0.000000 27.498571 15.946983 9.836647 0 0 0
5 1 1 0.000000 31.661727 37.475700 17.441261 0 0 0
6 1 1 0.000000 16.244623 7.370714 2.160465 0 0 0
7 1 1 0.000000 18.303403 47.787296 32.634662 -1 0 0
8 1 1 0.000000 42.866749 9.013620 21.240979 0 0 0
9 1 1 0.000000 39.884244 25.199960 4.930864 0 0 1
10 1 1 0.000000 25.729165 43.382223 30.809078 0 0 0
11 1 1 0.000000 4.019326 25.264622 22.481197 0 0 0
12 1 1 0.000000 32.938600 19.384714 43.099969 0 0 0
13 1 1 0.000000 1.232807 48.949041 10.300965 0 0 0
14 1 1 0.000000 43.583179 26.802942 46.217550 0 0 -1
15 1 1 0.000000 25.309963 14.514036 40.006367 0 0 0
16 1 1 0.000000 32.244177 11.288570 45.731807 0 0 -1
17 1 1 0.000000 4.585776 1.369002 18.221942 0 0 0
18 1 1 0.000000 24.608542 24.071948 22.108308 0 0 0
19 1 1 0.000000 33.649961 38.479070 29.087748 0 0 0
20 1 1 0.000000 25.876962 35.109499 36.183993 0 0 0
21 1 1 0.000000 34.723510 32.715691 8.318535 0 0 0
22 1 1 0.000000 24.846507 7.033850 6.513396 0 0 0
23 1 1 0.000000 6.245385 41.594804 19.825263 0 0 0
24 1 1 0.000000 26.666148 2.437877 30.252946 0 0 0
25 1 1 0.000000 47.211191 0.292747 43.147753 1 0 0
26 1 1 0.000000 31.926752 2.141260 9.189116 0 0 0
27 1 1 0.000000 20.400018 46.640098 24.035019 -1 0 0
28 1 1 0.000000 7.335768 7.815025 49.459468 0 0 -1
29 1 1 0.000000 49.219584 43.371608 2.302753 0 0 0
30 1 1 0.000000 45.005829 21.258792 10.887230 0 0 0
31 1 1 0.000000 36.743544 17.451520 9.985688 0 0 1
32 1 1 0.000000 34.172485 37.109336 39.131363 0 0 0
33 1 1 0.000000 32.119745 18.325179 17.946547 0 0 0
34 1 1 0.000000 9.801432 49.056213 24.643211 0 0 0
35 1 1 0.000000 11.983567 28.168500 40.545149 0 0 0
36 1 1 0.000000 8.527633 17.129450 0.846720 0 0 0
37 1 1 0.000000 24.749822 9.910071 25.681670 0 0 0
38 1 1 0.000000 13.732991 8.187685 37.432254 1 0 0
39 1 1 0.000000 25.667895 47.923444 4.645353 -1 0 1
40 1 1 0.000000 24.448333 48.385041 13.957957 0 0 0
41 1 1 0.000000 17.057339 4.907260 27.485011 0 0 0
42 1 1 0.000000 17.983753 38.046556 31.965921 0 0 0
43 1 1 0.000000 37.179048 49.185430 16.700585 0 0 0
44 1 1 0.000000 49.944662 20.284824 44.854293 0 0 0
45 1 1 0.000000 42.297108 5.850515 6.420079 0 -1 0
46 1 1 0.000000 19.162508 11.244617 12.393396 0 0 0
47 1 1 0.000000 29.429008 22.813731 35.432932 0 0 0
48 1 1 0.000000 6.351231 32.947934 17.997425 0 0 0
49 1 1 0.000000 15.660958 11.480442 21.414116 0 0 0
50 1 1 0.000000 0.739365 12.733521 26.318702 0 0 0
51 1 1 0.000000 3.125500 10.426949 17.477383 0 0 0
52 1 1 0.000000 30.497787 24.102172 0.506728 0 0 0
53 1 1 0.000000 8.896715 42.000377 31.554777 0 0 0
54 1 1 0.000000 38.472894 27.062086 13.570532 0 0 0
55 1 1 0.000000 31.449111 4.075444 23.117625 0 0 0
56 1 1 0.000000 23.430353 15.299679 18.356633 0 0 0
57 1 1 0.000000 26.678965 31.508726 4.795813 0 0 0
58 1 1 0.000000 23.821677 21.665055 43.993977 1 0 0
59 1 1 0.000000 13.137542 47.349914 16.156585 0 0 0
60 1 1 0.000000 8.422803 1.879090 5.889693 0 0 0
61 1 1 0.000000 40.683432 38.416166 4.552137 0 0 1
62 1 1 0.000000 21.312369 21.149311 30.978451 0 0 0
63 1 1 0.000000 17.414691 30.522565 9.154809 0 0 0
64 1 1 0.000000 46.236732 26.886448 18.482517 0 -1 0
65 1 1 0.000000 6.853094 25.782818 46.992008 0 0 0
66 1 1 0.000000 9.626916 16.458358 15.776046 0 0 0
67 1 1 0.000000 31.020239 46.838448 37.196252 -1 0 0
68 1 1 0.000000 17.457330 45.023475 49.635976 0 0 0
69 1 1 0.000000 7.917684 2.782059 32.547776 1 0 0
70 1 1 0.000000 15.303320 21.103438 45.740679 0 0 0
71 1 1 0.000000 1.392541 44.517806 28.076946 0 0 0
72 1 1 0.000000 1.951837 29.275959 39.277304 0 0 0
73 1 1 0.000000 46.167477 48.692998 33.464536 -1 0 0
74 1 1 0.000000 10.521963 24.197161 6.706179 0 0 0
75 1 1 0.000000 24.766475 6.750766 47.468850 0 0 0
76 1 1 0.000000 13.203173 38.336465 15.126830 0 0 0
77 1 1 0.000000 21.686528 23.698938 4.128006 0 0 0
78 1 1 0.000000 39.010020 44.296990 36.229308 0 0 0
79 1 1 0.000000 6.212761 13.024593 33.262307 0 0 0
80 1 1 0.000000 3.587211 17.438119 8.588495 0 0 0
81 1 1 0.000000 21.625216 27.422918 38.303245 0 0 0
82 1 1 0.000000 5.416821 5.638458 40.643571 0 0 0
83 1 1 0.000000 38.900860 32.986733 21.256909 0 0 0
84 1 1 0.000000 25.068149 31.793196 14.293660 0 0 0
85 1 1 0.000000 39.052053 16.798171 49.870669 0 0 0
86 1 1 0.000000 21.774619 42.404961 38.990199 0 0 0
87 1 1 0.000000 7.824613 17.761380 25.553500 0 0 0
88 1 1 0.000000 16.331831 20.614149 22.984205 0 0 0
89 1 1 0.000000 11.965419 6.440551 14.777954 0 0 0
90 1 1 0.000000 37.191183 4.898991 31.650199 0 0 0
91 1 1 0.000000 35.394803 46.205284 45.532399 0 0 0
92 1 1 0.000000 49.997286 18.350721 18.085830 0 0 0
93 1 1 0.000000 25.239439 15.702355 0.909916 0 0 0
94 1 1 0.000000 13.131658 30.580340 0.442044 0 0 0
95 1 1 0.000000 36.319333 23.223174 25.372558 0 0 0
96 1 1 0.000000 44.740671 31.285999 9.757159 0 0 0
97 1 1 0.000000 35.805652 8.483414 14.226071 0 0 0
98 1 1 0.000000 35.033469 31.017128 49.414181 0 0 0
99 1 1 0.000000 10.489872 39.068745 0.469884 0 0 1
100 1 1 0.000000 0.797492 3.848597 25.922380 0 0 0
101 1 1 0.000000 3.008754 45.496863 37.494632 0 1 0
102 1 1 0.000000 49.169021 39.579696 10.966652 0 -1 0
103 1 1 0.000000 42.440442 49.979676 24.452806 -1 0 0
104 1 1 0.000000 45.005649 12.590993 12.189593 0 0 0
105 1 1 0.000000 49.550306 24.783815 3.183491 0 0 0
106 1 1 0.000000 38.345188 30.162779 30.859328 0 0 0
107 1 1 0.000000 29.038624 29.186538 43.346910 0 0 0
108 1 1 0.000000 49.030552 10.573579 45.414492 0 0 0
109 1 1 0.000000 37.146628 27.339278 39.632442 0 0 0
110 1 1 0.000000 21.887972 30.034792 47.867446 0 0 0
111 1 1 0.000000 46.802919 21.405015 26.081297 0 0 0
112 1 1 0.000000 32.329779 39.918105 2.150288 0 0 0
113 1 1 0.000000 8.882575 32.960154 9.203709 0 0 0
114 1 1 0.000000 26.659783 46.370295 45.787485 -1 0 0
115 1 1 0.000000 10.081021 33.215739 32.839966 0 0 0
116 1 1 0.000000 33.105355 10.336218 5.420791 0 0 1
117 1 1 0.000000 18.365859 20.946415 12.963828 0 0 0
118 1 1 0.000000 4.108356 33.464940 1.950322 0 0 1
119 1 1 0.000000 39.945140 37.654561 13.967515 0 0 0
120 1 1 0.000000 19.435874 37.190547 2.556244 0 0 1
121 1 1 0.000000 38.866905 2.920154 40.547983 1 0 0
122 1 1 0.000000 13.819683 2.680720 44.362296 1 0 0
123 1 1 0.000000 26.997284 7.259077 15.036487 0 0 0
124 1 1 0.000000 25.949428 37.870577 46.213352 0 0 -1
125 1 1 0.000000 9.798237 11.577345 7.328860 0 0 0
126 1 1 0.000000 11.245123 29.021690 24.539789 0 0 0
127 1 1 0.000000 8.912672 14.276461 42.165734 0 0 0
128 1 1 0.000000 4.693031 35.720039 26.418688 0 0 0
129 1 1 0.000000 1.001054 37.264059 34.140882 0 0 0
130 1 1 0.000000 37.168909 19.663449 34.008097 0 0 0
131 1 1 0.000000 46.747956 45.767917 17.943098 0 0 0
132 1 1 0.000000 47.411168 7.673724 35.763604 0 -1 0
133 1 1 0.000000 21.295403 1.955066 40.383891 0 0 0
134 1 1 0.000000 6.899243 37.259406 42.579510 0 0 0
135 1 1 0.000000 0.974051 8.491240 7.325025 0 0 0
136 1 1 0.000000 46.857076 15.476764 3.176277 0 0 1
137 1 1 0.000000 42.882370 39.288221 29.054005 0 0 0
138 1 1 0.000000 14.423597 38.178100 24.156973 0 0 0
139 1 1 0.000000 29.744518 29.384058 28.784663 0 0 0
140 1 1 0.000000 49.574326 2.651078 1.242382 1 0 0
141 1 1 0.000000 17.183222 2.291457 9.337755 1 0 0
142 1 1 0.000000 47.272959 41.119537 42.163604 0 0 0
143 1 1 0.000000 18.458560 42.956827 9.318944 0 0 0
144 1 1 0.000000 3.936801 25.685055 31.476545 0 0 0
145 1 1 0.000000 19.909274 29.766103 28.654218 0 0 0
146 1 1 0.000000 48.542399 16.619460 36.149347 0 -1 0
147 1 1 0.000000 17.842857 31.234758 18.928021 0 0 0
148 1 1 0.000000 40.888142 18.188480 18.885186 0 0 0
149 1 1 0.000000 14.450075 14.079125 29.572211 0 0 0
150 1 1 0.000000 28.734131 45.285447 22.081444 -1 0 0
151 1 1 0.000000 26.426224 39.410507 9.396536 0 0 0
152 1 1 0.000000 19.618867 3.777418 18.602701 0 0 0
153 1 1 0.000000 44.765177 24.998902 35.199215 0 0 0
154 1 1 0.000000 8.396900 41.984760 8.203078 0 0 0
155 1 1 0.000000 16.164253 17.880892 37.709441 0 0 0
156 1 1 0.000000 6.564422 21.728625 38.687765 0 0 0
157 1 1 0.000000 35.054926 12.194455 24.450829 0 0 0
158 1 1 0.000000 6.038431 46.629212 46.905206 0 1 0
159 1 1 0.000000 31.847028 2.338404 49.625314 0 0 -1
160 1 1 0.000000 43.071917 13.393156 30.012691 0 0 0
161 1 1 0.000000 39.407630 38.455260 45.193531 0 0 0
162 1 1 0.000000 13.170231 44.504640 39.788274 0 0 0
163 1 1 0.000000 28.818257 24.420412 10.635050 0 0 1
164 1 1 0.000000 11.383875 25.432409 16.444381 0 1 0
165 1 1 0.000000 30.031443 5.295620 39.698506 0 0 0
166 1 1 0.000000 8.754610 8.683874 25.092875 0 0 0
167 1 1 0.000000 42.595211 46.137049 10.081049 0 0 0
168 1 1 0.000000 47.548704 36.008758 18.944398 0 -1 0
169 1 1 0.000000 45.279033 3.874369 14.279989 0 0 0
170 1 1 0.000000 38.893943 41.958274 21.577398 0 0 0
171 1 1 0.000000 41.893468 18.489288 41.680147 0 0 -1
172 1 1 0.000000 30.911552 11.052661 32.240653 0 0 0
173 1 1 0.000000 42.139586 49.078567 1.124285 0 0 1
174 1 1 0.000000 42.428915 35.044902 37.226631 0 0 0
175 1 1 0.000000 22.225352 8.975876 34.659117 0 0 0
176 1 1 0.000000 12.935761 24.375910 32.323951 0 0 0
177 1 1 0.000000 16.561110 35.861764 43.226475 0 0 0
178 1 1 0.000000 40.930840 8.297639 47.699482 0 0 -1
179 1 1 0.000000 34.400516 42.432399 10.423611 0 0 0
180 1 1 0.000000 47.131485 35.471523 48.255212 0 0 0
181 1 1 0.000000 2.749033 25.772999 11.582814 0 0 0
182 1 1 0.000000 22.107393 39.881880 17.758111 0 0 0
183 1 1 0.000000 34.470190 46.643574 29.165797 0 0 0
184 1 1 0.000000 31.564684 28.702426 20.115849 0 0 0
185 1 1 0.000000 28.881901 18.523726 27.214935 0 0 0
186 1 1 0.000000 16.826049 15.862640 5.198262 0 0 0
187 1 1 0.000000 17.892943 11.864462 44.565735 0 0 0

Bonds

1 1 83 142
2 1 117 166
3 1 32 67
4 1 53 181
5 1 109 130
6 1 12 185
7 1 41 87
8 1 48 184
9 1 22 116
10 1 37 47
11 1 17 105
12 1 74 113
13 1 129 140
14 1 91 167
15 1 25 47
16 1 80 127
17 1 17 114
18 1 42 154
19 1 65 155
20 1 114 141
21 1 50 128
22 1 22 163
23 1 68 125
24 1 8 134
25 1 29 102
26 1 50 146
27 1 63 70
28 1 47 62
29 1 34 154
30 1 64 85
31 1 79 168
32 1 82 114
33 1 27 128
34 1 58 125
35 1 13 128
36 1 13 80
37 1 1 137
38 1 26 90
39 1 72 162
40 1 99 143
41 1 8 157
42 1 21 171
43 1 7 71
44 1 42 150
45 1 131 138
46 1 6 93
47 1 52 94
48 1 8 50
49 1 2 95
50 1 11 13
51 1 133 165
52 1 28 53
53 1 75 151
54 1 3 157
55 1 74 107
56 1 4 156
57 1 38 165
58 1 133 183
59 1 62 162
60 1 125 159
61 1 104 163
62 1 53 153
63 1 15 75
64 1 100 123
65 1 35 149
66 1 106 107
67 1 149 181
68 1 69 100
69 1 135 181
70 1 9 111
71 1 73 146
72 1 18 51
73 1 11 19
74 1 45 112
75 1 71 162
76 1 99 120
77 1 43 94
78 1 27 81
79 1 99 154
80 1 145 164
81 1 121 185
82 1 65 110
83 1 31 132
84 1 33 49
85 1 122 175
86 1 5 64
87 1 113 124
88 1 152 173
89 1 59 68
90 1 30 96
91 1 90 140
92 1 91 160
93 1 111 146
94 1 35 42
95 1 26 31
96 1 5 163
97 1 108 126
98 1 111 185
99 1 71 119
100 1 115 174
101 1 117 135
102 1 75 167
103 1 31 45
104 1 84 187
105 1 123 159
106 1 94 172
107 1 3 156
108 1 34 76
109 1 117 151
110 1 12 174
111 1 48 131
112 1 37 109
113 1 58 63
114 1 27 179
115 1 5 169
116 1 104 183
117 1 30 52
118 1 84 145
119 1 105 108
120 1 70 87
121 1 77 152
122 1 40 97
123 1 135 186
124 1 172 184
125 1 112 175
126 1 115 122
127 1 23 173
128 1 137 147
129 1 54 160
130 1 145 183
131 1 95 109
132 1 37 77
133 1 64 127
134 1 66 141
135 1 104 160
136 1 84 110
137 1 122 150
138 1 19 120
139 1 87 134
140 1 105 165
141 1 126 131
142 1 102 174
143 1 152 172
144 1 97 184
145 1 141 142
146 1 118 153
147 1 108 156
148 1 123 148
149 1 76 158
150 1 62 130
151 1 4 35
152 1 2 83
153 1 57 170
154 1 124 140
155 1 25 171
156 1 150 157
157 1 48 61
158 1 7 127
159 1 70 161
160 1 46 186
161 1 52 178
162 1 100 173
163 1 17 88
164 1 61 97
165 1 2 168
166 1 67 164
167 1 132 147
168 1 43 81
169 1 63 143
170 1 46 66
171 1 11 61
172 1 69 72
173 1 30 161
174 1 56 116
175 1 10 41
176 1 143 159
177 1 56 176
178 1 78 103
179 1 65 144
180 1 151 175
181 1 73 138
182 1 24 33
183 1 49 58
184 1 41 51
185 1 139 171
186 1 66 186
187 1 26 179
188 1 98 180
189 1 107 116
190 1 55 170
191 1 178 180
192 1 10 129
193 1 1 55
194 1 88 176
195 1 144 164
196 1 89 126
197 1 14 129
198 1 179 180
199 1 149 155
200 1 40 56
201 1 6 136
202 1 46 83
203 1 14 103
204 1 81 88
205 1 95 148
206 1 91 142
207 1 90 132
208 1 22 68
209 1 34 166
210 1 119 169
211 1 54 110
212 1 9 33
213 1 32 73
214 1 137 169
215 1 20 155
216 1 101 158
217 1 12 93
218 1 32 134
219 1 86 124
220 1 60 115
221 1 102 177
222 1 24 79
223 1 7 187
224 1 144 161
225 1 15 86
226 1 92 112
227 1 15 49
228 1 96 182
229 1 14 20
230 1 23 24
231 1 76 139
232 1 29 170
233 1 54 57
234 1 77 177
235 1 29 57
236 1 16 44
237 1 39 113
238 1 79 139
239 1 80 89
240 1 6 45
241 1 4 148
242 1 78 85
243 1 74 118
244 1 3 176
245 1 10 178
246 1 21 147
247 1 18 85
248 1 25 106
249 1 28 38
250 1 16 86
251 1 69 166
252 1 43 167
253 1 1 133
254 1 23 40
255 1 51 119
256 1 78 106
257 1 92 103
258 1 28 72
259 1 55 59
260 1 21 98
261 1 20 67
262 1 16 93
263 1 59 118
264 1 38 153
265 1 44 187
266 1 19 101

