Generated by ZY code

187 atoms
1 atom types
266 bonds
1 bond types
0 angles
0 angle types
0 dihedrals
0 dihedral types
0 impropers
0 improper types

0.0000000000000000 50.0000000000000000 xlo xhi
0.0000000000000000 50.0000000000000000 ylo yhi
0.0000000000000000 50.0000000000000000 zlo zhi

Masses

1 1.000

Atoms # full

1 1 1 0.000000 0.515449 42.036894 22.016489 0 1 0
2 1 1 0.000000 38.060802 32.108217 12.223672 0 0 0
3 1 1 0.000000 18.190331 39.628578 9.459641 0 0 0
4 1 1 0.000000 40.587668 47.981242 17.975555 0 0 0
5 1 1 0.000000 26.268093 30.741111 40.517805 0 0 0
6 1 1 0.000000 45.596908 12.428171 18.797056 0 0 0
7 1 1 0.000000 22.990820 12.412526 32.654132 0 0 0
8 1 1 0.000000 30.411417 0.168697 42.702528 0 0 0
9 1 1 0.000000 46.385988 26.725062 12.210630 0 0 0
10 1 1 0.000000 43.845555 38.638522 18.198389 0 0 0
11 1 1 0.000000 29.288217 9.966550 14.903434 0 0 0
12 1 1 0.000000 15.026542 22.757444 2.446308 0 0 0
13 1 1 0.000000 2.535737 39.638900 14.400963 0 0 0
14 1 1 0.000000 8.512421 13.493284 12.337428 0 0 0
15 1 1 0.000000 2.026150 3.625404 4.343183 0 0 0
16 1 1 0.000000 48.042740 32.602287 28.166908 0 0 0
17 1 1 0.000000 27.247413 19.577177 1.698535 0 0 0
18 1 1 0.000000 36.931247 48.695444 49.374496 0 0 0
19 1 1 0.000000 26.015458 41.586047 14.777335 0 0 0
20 1 1 0.000000 48.013976 18.494158 10.988191 0 0 0
21 1 1 0.000000 24.009592 30.065366 27.502468 0 0 0
22 1 1 0.000000 37.964864 23.679955 13.319408 0 0 0
23 1 1 0.000000 41.479795 39.528040 37.624113 0 0 0
24 1 1 0.000000 6.261447 1.456633 24.554111 0 0 0
25 1 1 0.000000 12.139663 37.191304 14.895163 0 0 0
26 1 1 0.000000 10.359179 37.561967 23.448877 0 0 0
27 1 1 0.000000 35.189907 20.972551 27.868323 0 0 0
28 1 1 0.000000 36.415225 21.585157 39.792299 0 -1 -1
29 1 1 0.000000 31.987469 45.521179 20.382507 -1 0 0
30 1 1 0.000000 9.691448 20.115474 24.250964 1 0 0
31 1 1 0.000000 7.292011 3.459219 12.940063 0 0 0
32 1 1 0.000000 5.813050 45.927086 47.748314 -1 0 0
33 1 1 0.000000 23.288395 18.032467 15.818473 0 0 0
34 1 1 0.000000 2.063354 32.051623 19.779303 0 1 0
35 1 1 0.000000 36.093332 13.393363 19.751389 0 0 0
36 1 1 0.000000 38.618813 46.611933 8.153267 -1 0 0
37 1 1 0.000000 14.954470 31.380058 46.202949 0 0 0
38 1 1 0.000000 18.028432 31.814516 4.660044 0 0 0
39 1 1 0.000000 10.864691 29.259620 19.151114 0 0 0
40 1 1 0.000000 49.642264 40.062232 32.767526 0 -1 0
41 1 1 0.000000 30.563206 27.547971 10.829120 0 0 0
42 1 1 0.000000 8.667369 13.287988 40.062640 0 0 0
43 1 1 0.000000 40.526548 5.811960 22.364116 0 0 0
44 1 1 0.000000 29.752317 2.147894 4.226058 0 0 0
45 1 1 0.000000 2.264692 14.529102 4.665903 0 0 0
46 1 1 0.000000 25.103131 21.691905 28.284018 0 0 0
47 1 1 0.000000 47.780927 31.926690 4.327504 0 -1 0
48 1 1 0.000000 8.030315 29.870911 41.541005 0 0 0
49 1 1 0.000000 22.626656 0.600308 46.129343 1 0 0
50 1 1 0.000000 18.581436 35.157341 39.202048 0 0 0
51 1 1 0.000000 13.766947 23.172199 43.065497 0 0 0
52 1 1 0.000000 39.213131 22.767207 5.363190 0 -1 0
53 1 1 0.000000 34.798854 33.730556 39.208850 0 0 0
54 1 1 0.000000 41.542500 4.638289 4.691401 0 0 0
55 1 1 0.000000 17.994437 43.945703 42.703285 0 0 0
56 1 1 0.000000 49.715712 27.841070 45.433637 0 -1 0
57 1 1 0.000000 23.674195 26.514920 19.527073 0 0 0
58 1 1 0.000000 22.563224 0.035649 36.399761 1 0 0
59 1 1 0.000000 35.159925 37.774388 24.399265 0 0 0
60 1 1 0.000000 17.900563 16.212630 40.023955 0 0 0
61 1 1 0.000000 49.363326 22.634691 2.433077 0 -1 0
62 1 1 0.000000 15.880465 25.517086 26.369998 0 0 0
63 1 1 0.000000 11.094163 3.322146 4.647585 0 0 0
64 1 1 0.000000 26.943076 10.156511 0.301747 0 0 1
65 1 1 0.000000 11.808982 26.368456 34.553564 0 0 0
66 1 1 0.000000 21.299363 40.260426 32.468540 0 0 0
67 1 1 0.000000 30.546682 26.625625 33.847456 0 0 0
68 1 1 0.000000 44.723341 39.115907 8.764584 -1 0 0
69 1 1 0.000000 43.826302 23.463943 30.223954 0 0 0
70 1 1 0.000000 5.221258 13.398969 26.926422 0 0 0
71 1 1 0.000000 16.005753 16.955959 10.189525 0 0 0
72 1 1 0.000000 0.838237 22.102985 25.024014 0 1 0
73 1 1 0.000000 18.872581 15.885972 24.947358 0 0 0
74 1 1 0.000000 4.005678 23.318034 15.342015 0 0 0
75 1 1 0.000000 34.404637 31.813557 3.788158 0 0 0
76 1 1 0.000000 12.930640 12.123394 19.993070 0 0 0
77 1 1 0.000000 22.896170 32.203499 13.154264 0 0 0
78 1 1 0.000000 10.791929 39.089190 45.558461 0 0 0
79 1 1 0.000000 47.654426 15.120801 31.758392 0 0 0
80 1 1 0.000000 34.454214 9.806498 6.322324 0 0 1
81 1 1 0.000000 4.299517 3.626181 41.140118 1 0 0
82 1 1 0.000000 41.757068 22.807118 46.449827 0 0 0
83 1 1 0.000000 49.098919 1.691967 18.505388 0 0 0
84 1 1 0.000000 41.274457 31.395498 47.723842 0 0 0
85 1 1 0.000000 49.673325 9.082564 11.216618 0 0 0
86 1 1 0.000000 28.266087 44.175443 0.042554 0 0 0
87 1 1 0.000000 46.631352 5.853341 37.728439 0 0 0
88 1 1 0.000000 31.371257 17.823231 9.863222 0 0 0
89 1 1 0.000000 13.111944 15.435738 32.160442 0 0 0
90 1 1 0.000000 34.532638 43.660979 34.001148 0 0 0
91 1 1 0.000000 29.762137 15.924353 42.872701 0 0 0
92 1 1 0.000000 26.513970 36.945577 5.922881 0 0 0
93 1 1 0.000000 33.633560 7.848175 38.390227 0 0 0
94 1 1 0.000000 17.079282 6.395668 37.168143 0 0 0
95 1 1 0.000000 31.437285 21.482704 18.995825 0 0 0
96 1 1 0.000000 4.372317 21.431216 41.387310 0 0 0
97 1 1 0.000000 32.499946 29.351294 25.169648 0 0 0
98 1 1 0.000000 39.193007 5.618710 13.267711 0 0 0
99 1 1 0.000000 42.513153 21.196698 20.023323 0 -1 0
100 1 1 0.000000 39.879376 15.016609 11.043083 0 0 0
101 1 1 0.000000 43.427752 40.353437 48.165790 0 0 0
102 1 1 0.000000 4.983423 44.895489 6.827093 0 0 0
103 1 1 0.000000 12.678454 41.292608 36.044789 0 0 0
104 1 1 0.000000 47.364405 47.056034 11.539043 0 -1 0
105 1 1 0.000000 37.470489 48.677562 26.922793 0 0 0
106 1 1 0.000000 5.562576 19.155060 33.601248 0 0 0
107 1 1 0.000000 38.996301 15.061663 34.676164 0 0 0
108 1 1 0.000000 29.658565 17.757770 34.635465 0 0 0
109 1 1 0.000000 31.555188 10.397998 29.914642 0 0 0
110 1 1 0.000000 25.507202 38.526899 24.364789 0 0 0
111 1 1 0.000000 3.850372 9.586035 18.698936 0 0 0
112 1 1 0.000000 13.819923 27.880793 11.386152 0 0 0
113 1 1 0.000000 4.702403 8.247837 33.637455 0 0 0
114 1 1 0.000000 21.274407 8.875711 18.623003 0 0 0
115 1 1 0.000000 1.104925 49.672534 33.426501 -1 0 0
116 1 1 0.000000 15.059057 48.102666 11.322776 -1 0 0
117 1 1 0.000000 24.107230 12.487794 7.897544 0 0 0
118 1 1 0.000000 22.134086 23.928480 44.764770 0 0 0
119 1 1 0.000000 24.315032 47.584404 26.100033 0 0 0
120 1 1 0.000000 5.839827 8.709386 48.617614 0 0 0
121 1 1 0.000000 40.005195 6.256619 30.655375 0 0 0
122 1 1 0.000000 8.947006 45.534306 18.553333 0 0 0
123 1 1 0.000000 49.418489 36.206410 40.284922 0 0 0
124 1 1 0.000000 22.086329 23.465926 8.551463 0 0 0
125 1 1 0.000000 15.687132 7.261128 11.823677 0 0 0
126 1 1 0.000000 35.922292 40.783048 14.686345 0 0 0
127 1 1 0.000000 39.277958 2.209693 40.911890 1 0 0
128 1 1 0.000000 2.429002 37.133952 49.327980 0 1 0
129 1 1 0.000000 30.261870 35.829774 31.384447 0 0 0
130 1 1 0.000000 18.182235 33.896754 21.436076 0 0 0
131 1 1 0.000000 6.655640 28.397725 27.463470 0 0 0
132 1 1 0.000000 15.655363 21.889570 17.757363 0 0 0
133 1 1 0.000000 42.628375 40.300224 27.307466 0 0 0
134 1 1 0.000000 6.920452 29.132153 1.679257 0 1 0
135 1 1 0.000000 5.572853 44.193388 39.025158 0 0 0
136 1 1 0.000000 7.417910 34.741328 34.117684 0 0 0
137 1 1 0.000000 46.843241 5.689999 46.956464 0 0 -1
138 1 1 0.000000 20.673911 37.453741 48.794696 0 0 -1
139 1 1 0.000000 43.168030 29.666036 38.368132 0 0 0
140 1 1 0.000000 41.023910 13.082217 43.179969 0 0 0
141 1 1 0.000000 21.132467 5.521206 28.090051 0 0 0
142 1 1 0.000000 46.291145 48.921784 26.083634 0 0 0
143 1 1 0.000000 12.372753 0.659312 43.071878 1 0 0
144 1 1 0.000000 23.794239 47.089976 7.804848 0 0 0
145 1 1 0.000000 30.647072 1.295532 13.409279 0 0 0
146 1 1 0.000000 0.045488 14.003397 43.354085 0 0 0
147 1 1 0.000000 48.862186 7.402120 26.123567 0 0 0
148 1 1 0.000000 27.511673 14.194497 22.813820 0 0 0
149 1 1 0.000000 15.136407 43.915792 1.372051 0 0 1
150 1 1 0.000000 29.358379 4.857780 23.066633 1 0 0
151 1 1 0.000000 30.098644 34.217107 17.184047 0 0 0
152 1 1 0.000000 17.891600 42.742888 19.827836 0 0 0
153 1 1 0.000000 19.607416 5.218560 3.213026 0 0 0
154 1 1 0.000000 23.214122 49.961156 17.257499 -1 0 0
155 1 1 0.000000 7.063193 43.472954 28.722142 -1 0 0
156 1 1 0.000000 32.951514 26.943148 45.895183 0 0 0
157 1 1 0.000000 35.391019 40.476745 3.125890 0 0 0
158 1 1 0.000000 42.429594 47.524478 34.215808 0 0 0
159 1 1 0.000000 8.631838 17.853926 48.636863 0 0 -1
160 1 1 0.000000 1.147741 27.577905 34.979755 0 0 0
161 1 1 0.000000 40.633292 30.274035 20.730084 0 0 0
162 1 1 0.000000 10.581574 37.085239 4.883010 0 0 0
163 1 1 0.000000 12.160169 7.806492 27.834873 0 0 0
164 1 1 0.000000 39.736045 32.206841 30.383763 0 0 0
165 1 1 0.000000 29.731246 35.713085 47.093782 0 0 0
166 1 1 0.000000 15.617877 33.767843 29.940441 0 0 0
167 1 1 0.000000 19.500089 15.302536 0.927585 0 0 1
168 1 1 0.000000 14.528410 2.342486 20.476631 0 0 0
169 1 1 0.000000 8.024294 21.319058 7.773318 0 0 0
170 1 1 0.000000 24.726277 8.288916 41.894883 0 0 0
171 1 1 0.000000 25.574989 28.050163 2.054785 0 0 0
172 1 1 0.000000 47.037209 46.595105 42.634952 0 0 0
173 1 1 0.000000 30.841776 1.898822 31.681642 1 0 0
174 1 1 0.000000 35.728964 16.564433 49.728914 0 0 0
175 1 1 0.000000 21.016065 24.622055 35.781463 0 0 0
176 1 1 0.000000 46.771279 46.574912 2.020242 -1 0 1
177 1 1 0.000000 34.651911 7.113046 47.143448 0 0 0
178 1 1 0.000000 45.015204 20.173933 38.507253 0 0 0
179 1 1 0.000000 15.334757 47.678515 28.221251 0 0 0
180 1 1 0.000000 26.085971 41.366410 39.899087 0 0 0
181 1 1 0.000000 44.435585 15.090891 0.957375 0 0 0
182 1 1 0.000000 35.332043 42.515401 43.662538 0 0 0
183 1 1 0.000000 4.447154 31.337752 10.352524 0 0 0
184 1 1 0.000000 9.874483 0.925543 34.169353 1 0 0
185 1 1 0.000000 12.216681 11.908306 4.423121 0 0 0
186 1 1 0.000000 40.940506 14.751627 26.508250 0 0 0
187 1 1 0.000000 15.394447 9.213945 46.024684 0 0 -1

Bonds

1 1 25 67
2 1 17 38
3 1 26 47
4 1 111 131
5 1 94 132
6 1 86 156
7 1 64 108
8 1 8 90
9 1 31 115
10 1 65 97
11 1 124 156
12 1 160 164
13 1 64 171
14 1 81 96
15 1 54 83
16 1 58 89
17 1 123 135
18 1 66 88
19 1 4 47
20 1 7 12
21 1 26 122
22 1 76 110
23 1 12 78
24 1 121 156
25 1 119 180
26 1 20 102
27 1 105 180
28 1 18 68
29 1 132 137
30 1 94 129
31 1 2 33
32 1 34 169
33 1 7 108
34 1 52 138
35 1 85 181
36 1 116 187
37 1 106 107
38 1 70 121
39 1 135 176
40 1 140 159
41 1 23 53
42 1 77 122
43 1 77 123
44 1 52 169
45 1 122 179
46 1 107 160
47 1 30 87
48 1 32 153
49 1 15 86
50 1 48 63
51 1 127 172
52 1 170 176
53 1 59 104
54 1 65 177
55 1 47 180
56 1 90 172
57 1 60 177
58 1 59 136
59 1 67 130
60 1 98 167
61 1 54 84
62 1 78 166
63 1 83 162
64 1 38 144
65 1 20 88
66 1 25 123
67 1 159 169
68 1 70 73
69 1 70 108
70 1 23 136
71 1 29 115
72 1 14 143
73 1 129 165
74 1 21 130
75 1 20 85
76 1 5 166
77 1 25 57
78 1 78 136
79 1 7 178
80 1 50 158
81 1 55 127
82 1 4 131
83 1 121 176
84 1 95 129
85 1 35 59
86 1 161 166
87 1 86 153
88 1 48 103
89 1 77 152
90 1 45 161
91 1 18 182
92 1 22 95
93 1 17 89
94 1 58 73
95 1 28 139
96 1 55 173
97 1 124 128
98 1 12 89
99 1 63 131
100 1 39 53
101 1 58 163
102 1 115 153
103 1 113 143
104 1 111 179
105 1 24 66
106 1 29 69
107 1 63 144
108 1 21 119
109 1 53 133
110 1 52 158
111 1 114 162
112 1 60 72
113 1 29 102
114 1 69 186
115 1 117 127
116 1 138 143
117 1 37 114
118 1 33 167
119 1 34 133
120 1 106 184
121 1 24 144
122 1 74 134
123 1 45 167
124 1 37 146
125 1 118 165
126 1 130 181
127 1 14 74
128 1 56 84
129 1 22 92
130 1 170 184
131 1 4 128
132 1 10 152
133 1 28 97
134 1 55 160
135 1 5 28
136 1 75 151
137 1 33 95
138 1 24 148
139 1 54 175
140 1 98 141
141 1 34 67
142 1 19 138
143 1 100 120
144 1 83 142
145 1 64 132
146 1 110 155
147 1 172 186
148 1 68 98
149 1 51 134
150 1 87 135
151 1 102 112
152 1 90 152
153 1 49 116
154 1 41 88
155 1 41 45
156 1 37 134
157 1 69 147
158 1 2 43
159 1 1 104
160 1 49 182
161 1 57 113
162 1 157 165
163 1 109 146
164 1 168 186
165 1 11 185
166 1 68 82
167 1 114 140
168 1 106 125
169 1 40 72
170 1 87 179
171 1 142 150
172 1 38 159
173 1 6 141
174 1 140 173
175 1 19 151
176 1 133 148
177 1 92 124
178 1 21 171
179 1 41 92
180 1 36 93
181 1 57 181
182 1 72 177
183 1 147 173
184 1 3 49
185 1 81 147
186 1 157 182
187 1 44 151
188 1 75 157
189 1 76 113
190 1 50 65
191 1 85 125
192 1 107 109
193 1 150 154
194 1 8 93
195 1 17 118
196 1 91 174
197 1 82 100
198 1 60 96
199 1 118 175
200 1 3 112
201 1 32 94
202 1 119 150
203 1 44 81
204 1 128 161
205 1 30 175
206 1 19 145
207 1 97 100
208 1 40 99
209 1 2 93
210 1 44 148
211 1 73 141
212 1 50 171
213 1 9 137
214 1 16 23
215 1 13 15
216 1 39 103
217 1 48 61
218 1 6 43
219 1 16 40
220 1 170 185
221 1 42 187
222 1 76 168
223 1 14 30
224 1 15 105
225 1 32 164
226 1 42 96
227 1 116 185
228 1 125 149
229 1 75 91
230 1 61 111
231 1 9 79
232 1 155 158
233 1 22 126
234 1 9 56
235 1 6 71
236 1 1 154
237 1 71 168
238 1 82 139
239 1 35 43
240 1 112 155
241 1 51 149
242 1 71 163
243 1 174 187
244 1 16 46
245 1 56 101
246 1 11 84
247 1 3 13
248 1 31 103
249 1 18 80
250 1 11 109
251 1 80 146
252 1 10 13
253 1 61 183
254 1 36 104
255 1 31 62
256 1 35 137
257 1 51 154
258 1 10 139
259 1 126 149
260 1 62 183
261 1 42 99
262 1 26 178
263 1 105 184
264 1 39 99
265 1 8 145
266 1 80 174

