Generated by ZY code

187 atoms
1 atom types
266 bonds
1 bond types
0 angles
0 angle types
0 dihedrals
0 dihedral types
0 impropers
0 improper types

0.0000000000000000 50.0000000000000000 xlo xhi
0.0000000000000000 50.0000000000000000 ylo yhi
0.0000000000000000 50.0000000000000000 zlo zhi

Masses

1 1.000

Atoms # full

1 1 1 0.000000 38.027544 32.176144 20.527309 0 0 0
2 1 1 0.000000 34.866747 15.465552 36.907742 0 0 0
3 1 1 0.000000 32.920087 11.912412 3.785655 0 0 0
4 1 1 0.000000 16.958871 48.323846 41.003714 0 0 0
5 1 1 0.000000 38.190390 1.596394 29.358771 0 0 0
6 1 1 0.000000 36.635761 8.314807 34.801477 0 0 0
7 1 1 0.000000 20.917754 34.763601 8.053963 0 0 0
8 1 1 0.000000 14.456765 18.394932 2.724448 0 0 0
9 1 1 0.000000 37.684938 26.517979 25.218969 0 0 0
10 1 1 0.000000 3.101211 38.807091 42.680602 0 0 0
11 1 1 0.000000 3.439921 20.172383 18.534363 0 0 0
12 1 1 0.000000 23.173854 33.812568 18.267672 0 0 0
13 1 1 0.000000 20.365328 33.707291 46.435968 0 0 0
14 1 1 0.000000 2.708312 40.587900 21.612464 0 0 0
15 1 1 0.000000 22.271284 26.558097 46.265868 0 0 0
16 1 1 0.000000 36.054419 17.130595 9.642658 0 0 0
17 1 1 0.000000 31.556518 29.281261 31.166457 0 0 0
18 1 1 0.000000 9.942210 42.371755 5.053213 0 0 0
19 1 1 0.000000 13.921502 33.545265 6.270605 0 0 0
20 1 1 0.000000 45.042109 22.396975 11.584321 0 0 0
21 1 1 0.000000 30.217931 46.923011 31.876952 0 0 0
22 1 1 0.000000 39.073712 43.717058 3.138276 0 0 0
23 1 1 0.000000 6.491350 43.182788 13.124018 0 0 0
24 1 1 0.000000 33.075783 25.987353 2.140044 0 0 0
25 1 1 0.000000 19.751490 5.366596 27.756733 0 0 0
26 1 1 0.000000 24.245230 29.690788 4.552314 0 0 0
27 1 1 0.000000 43.247441 11.188386 33.276935 0 0 0
28 1 1 0.000000 34.898938 7.664582 42.047466 0 0 0
29 1 1 0.000000 26.328934 3.487003 32.602891 0 0 0
30 1 1 0.000000 34.528815 34.844195 34.381561 0 0 0
31 1 1 0.000000 19.339466 34.949342 24.721204 0 0 0
32 1 1 0.000000 47.394066 41.393905 11.125199 0 0 0
33 1 1 0.000000 22.646461 2.224748 43.765343 0 0 0
34 1 1 0.000000 29.434770 0.714834 40.373892 0 0 0
35 1 1 0.000000 8.883409 48.396060 38.835803 0 0 0
36 1 1 0.000000 30.575831 11.136844 32.917283 0 0 0
37 1 1 0.000000 47.750132 8.240533 38.283154 0 0 0
38 1 1 0.000000 11.228573 45.167822 31.685338 0 0 0
39 1 1 0.000000 49.967652 37.016733 1.929145 0 0 0
40 1 1 0.000000 10.735798 27.628397 26.552542 0 0 0
41 1 1 0.000000 23.935637 25.172149 12.124641 0 0 0
42 1 1 0.000000 19.410861 1.787058 2.327013 0 0 0
43 1 1 0.000000 49.862392 8.066708 49.417752 0 -1 0
44 1 1 0.000000 9.909106 13.205672 24.706572 0 0 0
45 1 1 0.000000 27.761037 21.244101 47.377913 0 0 0
46 1 1 0.000000 29.236228 12.675623 16.406014 0 0 0
47 1 1 0.000000 17.384179 43.424653 35.942969 0 0 0
48 1 1 0.000000 13.325016 8.291781 4.174463 0 0 0
49 1 1 0.000000 29.180197 37.244282 14.263980 0 0 0
50 1 1 0.000000 2.838987 11.774490 42.971863 0 0 0
51 1 1 0.000000 15.777037 22.170284 40.990266 0 0 0
52 1 1 0.000000 42.563793 46.504361 33.763767 -1 0 0
53 1 1 0.000000 19.920790 29.782275 39.857586 0 0 0
54 1 1 0.000000 10.003056 16.670723 18.323086 0 0 0
55 1 1 0.000000 48.270263 20.847672 2.383973 0 -1 0
56 1 1 0.000000 39.208073 36.588220 11.600957 0 0 0
57 1 1 0.000000 17.305377 14.775697 43.980403 0 0 0
58 1 1 0.000000 27.088370 32.922515 26.149382 0 0 0
59 1 1 0.000000 37.794504 0.800754 45.011135 0 0 0
60 1 1 0.000000 7.781630 33.412420 41.122449 0 0 0
61 1 1 0.000000 41.374761 8.022773 2.965881 0 0 0
62 1 1 0.000000 20.177335 23.239753 2.685430 0 0 0
63 1 1 0.000000 23.614410 2.396263 21.082053 0 0 0
64 1 1 0.000000 30.887972 40.140165 6.383504 0 0 0
65 1 1 0.000000 23.987459 41.172907 10.213684 0 0 0
66 1 1 0.000000 46.754374 16.480866 18.635454 0 0 0
67 1 1 0.000000 29.471954 17.331747 6.805307 0 0 0
68 1 1 0.000000 23.826909 11.542435 9.703429 0 0 0
69 1 1 0.000000 42.244244 20.419219 24.985703 0 0 0
70 1 1 0.000000 26.772484 18.559855 13.356750 0 0 0
71 1 1 0.000000 16.606850 39.597159 47.989659 0 0 0
72 1 1 0.000000 35.658368 20.012296 28.231048 0 0 0
73 1 1 0.000000 10.308406 36.281771 32.568671 0 0 0
74 1 1 0.000000 2.699159 36.794105 35.216121 0 0 0
75 1 1 0.000000 16.047933 0.841278 23.521852 0 0 0
76 1 1 0.000000 32.668994 7.483215 19.896523 0 0 0
77 1 1 0.000000 11.037687 6.134707 15.647570 1 0 0
78 1 1 0.000000 30.055817 20.921368 34.570421 0 0 0
79 1 1 0.000000 30.099692 40.964620 46.880105 0 0 0
80 1 1 0.000000 1.514176 18.557562 33.345935 0 1 0
81 1 1 0.000000 4.390852 8.492946 24.590977 0 0 0
82 1 1 0.000000 34.795062 8.292219 27.412781 0 0 0
83 1 1 0.000000 44.232123 18.611275 31.666389 0 0 0
84 1 1 0.000000 43.454266 35.447845 26.601352 0 0 0
85 1 1 0.000000 0.109978 8.116079 9.656628 0 0 0
86 1 1 0.000000 46.462999 40.474848 35.342733 0 0 0
87 1 1 0.000000 28.255015 7.463302 38.809617 0 0 0
88 1 1 0.000000 9.794650 49.824449 4.304312 0 0 0
89 1 1 0.000000 45.186484 13.293672 26.485102 0 0 0
90 1 1 0.000000 10.925152 38.027214 10.967111 0 0 0
91 1 1 0.000000 14.682035 34.536781 42.193073 0 0 0
92 1 1 0.000000 46.775960 15.458671 38.558859 0 0 0
93 1 1 0.000000 2.152971 2.549790 37.847111 0 0 0
94 1 1 0.000000 43.133734 4.701416 42.492472 0 0 0
95 1 1 0.000000 34.091641 21.148583 15.456306 0 0 0
96 1 1 0.000000 3.511396 37.790919 8.880179 0 0 0
97 1 1 0.000000 46.106225 14.251851 46.260502 0 0 0
98 1 1 0.000000 0.679323 39.652133 28.660668 0 0 0
99 1 1 0.000000 8.471967 26.057615 40.927055 0 0 0
100 1 1 0.000000 27.265109 14.615026 39.384281 0 0 0
101 1 1 0.000000 17.255234 27.239164 9.046277 0 0 0
102 1 1 0.000000 39.759223 36.950296 47.346509 0 0 0
103 1 1 0.000000 43.889593 25.562157 49.300199 0 0 -1
104 1 1 0.000000 37.375248 10.481533 12.673056 0 0 0
105 1 1 0.000000 9.483509 3.828683 22.723247 0 0 0
106 1 1 0.000000 40.968804 11.859172 41.338715 0 0 0
107 1 1 0.000000 47.897738 48.794169 27.766416 -1 0 0
108 1 1 0.000000 43.331323 37.019746 5.351466 0 0 0
109 1 1 0.000000 0.077131 8.310103 30.503439 0 1 0
110 1 1 0.000000 16.966083 38.784587 30.551049 0 0 0
111 1 1 0.000000 11.974645 49.858395 47.300677 0 0 0
112 1 1 0.000000 24.474504 10.338763 29.821559 0 0 0
113 1 1 0.000000 7.943786 41.424572 37.379943 0 0 0
114 1 1 0.000000 42.139444 14.331113 6.812653 0 0 0
115 1 1 0.000000 5.506541 23.710042 47.998406 0 0 0
116 1 1 0.000000 46.471153 47.249319 5.927484 0 0 0
117 1 1 0.000000 27.357524 23.183266 18.957103 0 0 0
118 1 1 0.000000 20.114876 1.737610 12.706349 0 0 0
119 1 1 0.000000 11.435277 31.693869 14.741616 0 0 0
120 1 1 0.000000 38.297949 16.698678 0.694695 0 0 0
121 1 1 0.000000 3.386071 45.097505 6.586102 0 0 0
122 1 1 0.000000 47.693351 8.495419 21.589518 0 0 0
123 1 1 0.000000 39.386420 30.260209 2.732182 0 0 0
124 1 1 0.000000 17.539609 12.335163 30.077216 0 0 0
125 1 1 0.000000 20.796674 18.180741 26.317821 0 0 0
126 1 1 0.000000 17.528363 16.215093 16.373958 0 0 0
127 1 1 0.000000 9.697210 24.833534 6.991373 0 0 0
128 1 1 0.000000 39.922108 26.833563 15.565915 0 0 0
129 1 1 0.000000 32.586469 47.649431 48.842157 0 0 0
130 1 1 0.000000 44.693923 35.795432 41.598827 0 0 0
131 1 1 0.000000 1.024943 2.509053 45.159178 0 0 0
132 1 1 0.000000 11.519219 20.134204 12.263441 0 0 0
133 1 1 0.000000 40.027657 2.473570 36.403689 0 0 0
134 1 1 0.000000 25.436272 36.131227 0.756307 0 0 0
135 1 1 0.000000 1.198930 28.739588 13.164244 0 0 0
136 1 1 0.000000 0.121400 30.186611 5.531070 0 1 0
137 1 1 0.000000 23.860168 39.581256 33.982966 0 0 0
138 1 1 0.000000 40.830441 0.780459 1.804681 0 0 0
139 1 1 0.000000 9.208312 4.655624 35.515943 0 0 0
140 1 1 0.000000 33.869828 43.909530 24.575145 0 0 0
141 1 1 0.000000 1.517453 28.395730 33.658883 0 0 0
142 1 1 0.000000 39.406668 39.923686 33.566613 0 0 0
143 1 1 0.000000 39.298175 49.111848 22.372094 0 0 0
144 1 1 0.000000 13.828936 19.622312 23.884287 0 0 0
145 1 1 0.000000 18.681739 46.307948 47.751687 0 0 0
146 1 1 0.000000 17.651012 37.851600 13.940977 0 0 0
147 1 1 0.000000 34.498664 6.389724 49.296524 0 0 0
148 1 1 0.000000 23.604589 47.407193 35.972622 0 0 0
149 1 1 0.000000 19.587857 18.510698 8.242005 0 0 0
150 1 1 0.000000 27.020387 23.371371 4.732102 0 0 0
151 1 1 0.000000 32.076907 1.712151 24.658114 0 0 0
152 1 1 0.000000 26.782935 30.066981 36.849782 0 0 0
153 1 1 0.000000 44.052130 30.330195 10.091992 0 0 0
154 1 1 0.000000 7.906193 38.475129 49.028615 0 0 0
155 1 1 0.000000 29.737565 24.506159 26.022603 0 0 0
156 1 1 0.000000 1.122967 29.156797 41.331464 0 0 0
157 1 1 0.000000 15.412722 22.840791 30.449531 0 0 0
158 1 1 0.000000 35.696642 23.496746 44.806161 0 0 0
159 1 1 0.000000 29.700122 30.140649 19.606045 0 0 0
160 1 1 0.000000 1.808924 25.969895 23.473903 0 0 0
161 1 1 0.000000 0.354104 48.305551 14.030243 0 0 0
162 1 1 0.000000 37.608720 23.292485 34.936447 0 0 0
163 1 1 0.000000 21.059458 9.953704 36.930180 0 0 0
164 1 1 0.000000 45.424972 23.963728 19.584123 0 0 0
165 1 1 0.000000 44.710104 22.654863 37.916270 0 0 0
166 1 1 0.000000 1.006728 14.372829 2.191880 0 0 0
167 1 1 0.000000 28.860461 43.606812 39.967207 0 0 0
168 1 1 0.000000 8.131525 17.086862 44.389668 0 0 0
169 1 1 0.000000 29.504648 16.176649 27.755452 0 0 0
170 1 1 0.000000 7.497712 17.263131 1.821177 0 0 0
171 1 1 0.000000 34.162912 38.312490 40.874046 0 0 0
172 1 1 0.000000 10.608252 39.674012 19.603499 0 0 0
173 1 1 0.000000 34.798714 15.685768 44.274855 0 0 0
174 1 1 0.000000 17.194906 41.257184 6.314843 0 0 0
175 1 1 0.000000 31.776276 32.707211 49.944811 0 0 -1
176 1 1 0.000000 2.272459 19.848611 40.784673 0 0 0
177 1 1 0.000000 17.312447 29.657973 1.500579 0 0 0
178 1 1 0.000000 38.619002 2.956395 8.746920 0 0 0
179 1 1 0.000000 10.696709 10.754025 31.910341 0 0 0
180 1 1 0.000000 7.064137 33.354687 4.285031 0 0 0
181 1 1 0.000000 38.007316 23.789454 7.027688 0 0 0
182 1 1 0.000000 7.898693 44.296623 44.744685 0 0 0
183 1 1 0.000000 4.071046 2.218741 8.193504 0 0 0
184 1 1 0.000000 7.324322 47.557608 18.733975 0 0 0
185 1 1 0.000000 6.244554 12.257296 7.536163 0 0 0
186 1 1 0.000000 44.962518 34.694079 16.503748 0 0 0
187 1 1 0.000000 29.743465 32.761341 8.255718 0 0 0

Bonds

1 1 44 128
2 1 21 83
3 1 169 181
4 1 35 170
5 1 73 110
6 1 6 24
7 1 63 93
8 1 41 156
9 1 47 110
10 1 119 145
11 1 49 187
12 1 6 167
13 1 109 162
14 1 72 133
15 1 67 165
16 1 98 156
17 1 86 179
18 1 29 86
19 1 141 153
20 1 8 103
21 1 58 66
22 1 36 69
23 1 62 119
24 1 53 140
25 1 65 101
26 1 79 133
27 1 99 169
28 1 29 93
29 1 9 66
30 1 41 46
31 1 17 99
32 1 62 187
33 1 36 171
34 1 165 166
35 1 52 152
36 1 36 156
37 1 40 126
38 1 59 116
39 1 33 125
40 1 35 182
41 1 118 167
42 1 4 138
43 1 60 79
44 1 59 87
45 1 37 94
46 1 81 137
47 1 21 120
48 1 14 171
49 1 77 131
50 1 33 53
51 1 29 149
52 1 72 97
53 1 59 138
54 1 10 166
55 1 6 82
56 1 97 157
57 1 26 185
58 1 4 25
59 1 90 99
60 1 21 71
61 1 117 119
62 1 56 138
63 1 117 180
64 1 34 86
65 1 33 72
66 1 17 181
67 1 80 182
68 1 18 177
69 1 55 135
70 1 110 165
71 1 12 95
72 1 20 46
73 1 84 93
74 1 87 89
75 1 8 134
76 1 121 179
77 1 5 58
78 1 54 112
79 1 55 153
80 1 75 85
81 1 12 132
82 1 55 108
83 1 5 133
84 1 142 170
85 1 28 35
86 1 13 91
87 1 32 151
88 1 73 130
89 1 69 109
90 1 4 159
91 1 118 155
92 1 41 137
93 1 10 111
94 1 79 87
95 1 130 186
96 1 20 69
97 1 74 167
98 1 43 122
99 1 123 132
100 1 50 122
101 1 42 71
102 1 37 61
103 1 105 121
104 1 141 173
105 1 25 30
106 1 40 109
107 1 18 121
108 1 116 183
109 1 56 128
110 1 30 52
111 1 123 141
112 1 53 58
113 1 65 143
114 1 31 65
115 1 11 85
116 1 130 137
117 1 122 142
118 1 76 128
119 1 20 103
120 1 70 77
121 1 46 169
122 1 62 115
123 1 52 140
124 1 22 50
125 1 10 92
126 1 94 182
127 1 47 91
128 1 32 89
129 1 8 96
130 1 75 80
131 1 26 151
132 1 42 185
133 1 16 114
134 1 57 106
135 1 100 103
136 1 96 136
137 1 32 85
138 1 48 125
139 1 56 161
140 1 25 100
141 1 104 118
142 1 71 73
143 1 80 168
144 1 60 150
145 1 23 160
146 1 97 131
147 1 38 112
148 1 146 187
149 1 90 186
150 1 42 111
151 1 3 16
152 1 47 98
153 1 76 107
154 1 9 14
155 1 123 125
156 1 49 91
157 1 1 146
158 1 68 178
159 1 60 111
160 1 61 170
161 1 101 163
162 1 64 101
163 1 114 185
164 1 90 94
165 1 18 23
166 1 114 186
167 1 131 154
168 1 74 184
169 1 61 66
170 1 140 162
171 1 67 70
172 1 116 173
173 1 2 9
174 1 50 168
175 1 37 113
176 1 34 154
177 1 136 175
178 1 63 134
179 1 5 89
180 1 31 139
181 1 77 161
182 1 24 127
183 1 43 153
184 1 7 184
185 1 57 183
186 1 19 134
187 1 14 108
188 1 7 12
189 1 88 161
190 1 74 157
191 1 70 126
192 1 24 106
193 1 145 163
194 1 48 171
195 1 63 174
196 1 38 172
197 1 106 142
198 1 158 181
199 1 75 180
200 1 82 105
201 1 31 146
202 1 30 172
203 1 15 183
204 1 95 155
205 1 22 96
206 1 1 100
207 1 51 57
208 1 34 67
209 1 2 145
210 1 135 164
211 1 139 143
212 1 49 177
213 1 95 144
214 1 148 154
215 1 45 174
216 1 27 113
217 1 129 174
218 1 1 82
219 1 150 157
220 1 54 159
221 1 164 173
222 1 17 83
223 1 150 168
224 1 76 112
225 1 11 132
226 1 45 175
227 1 15 48
228 1 43 136
229 1 16 135
230 1 23 139
231 1 40 68
232 1 108 159
233 1 78 147
234 1 160 172
235 1 15 115
236 1 88 127
237 1 39 88
238 1 149 184
239 1 39 180
240 1 84 98
241 1 27 38
242 1 105 179
243 1 19 39
244 1 129 178
245 1 151 175
246 1 83 107
247 1 124 126
248 1 13 149
249 1 26 28
250 1 13 44
251 1 84 143
252 1 27 164
253 1 28 51
254 1 78 120
255 1 113 176
256 1 117 176
257 1 127 158
258 1 92 162
259 1 51 176
260 1 64 177
261 1 3 45
262 1 7 54
263 1 120 155
264 1 64 129
265 1 3 68
266 1 2 163

