Generated by ZY code

96 atoms
1 atom types
136 bonds
1 bond types
0 angles
0 angle types
0 dihedrals
0 dihedral types
0 impropers
0 improper types

0.0000000000000000 40.0000000000000000 xlo xhi
0.0000000000000000 40.0000000000000000 ylo yhi
0.0000000000000000 40.0000000000000000 zlo zhi

Masses

1 1.000

Atoms # full

1 1 1 0.000000 5.587572 5.053075 30.812943 1 0 0
2 1 1 0.000000 37.815842 16.665651 18.285209 0 0 0
3 1 1 0.000000 31.942587 31.350963 34.457329 0 0 0
4 1 1 0.000000 33.890403 18.247257 25.632651 0 0 0
5 1 1 0.000000 21.682529 10.212141 24.030317 0 0 0
6 1 1 0.000000 20.235314 38.517529 14.580589 0 0 0
7 1 1 0.000000 12.709739 36.403815 21.263415 -1 0 0
8 1 1 0.000000 37.045189 1.945631 27.178834 0 -1 0
9 1 1 0.000000 17.238077 1.969611 26.407342 0 0 0
10 1 1 0.000000 32.115477 22.028933 33.520596 0 0 0
11 1 1 0.000000 28.244973 37.088120 2.501288 0 0 0
12 1 1 0.000000 36.812372 34.343953 0.964607 -1 -1 0
13 1 1 0.000000 22.621073 12.248977 2.894128 0 0 0
14 1 1 0.000000 14.819448 8.896294 18.371091 0 0 0
15 1 1 0.000000 16.573324 24.796503 27.219597 0 0 0
16 1 1 0.000000 6.590183 13.275667 35.353019 0 0 0
17 1 1 0.000000 7.675409 4.853241 22.211588 0 0 0
18 1 1 0.000000 28.876364 29.576861 8.895657 0 0 0
19 1 1 0.000000 29.572584 23.042546 16.328529 0 0 0
20 1 1 0.000000 22.144832 32.354444 22.816303 0 0 0
21 1 1 0.000000 14.509516 10.404745 38.291594 0 0 0
22 1 1 0.000000 31.530092 6.909723 4.382334 0 0 0
23 1 1 0.000000 23.615806 19.471633 37.875324 0 0 0
24 1 1 0.000000 39.022091 12.241680 8.508743 0 0 0
25 1 1 0.000000 13.899976 2.454923 34.523466 0 0 0
26 1 1 0.000000 30.914892 9.852439 22.593795 0 0 0
27 1 1 0.000000 2.557831 22.216046 23.414347 0 1 0
28 1 1 0.000000 18.765294 36.570525 38.979143 -1 0 -1
29 1 1 0.000000 11.964404 2.101044 13.375675 0 0 0
30 1 1 0.000000 3.743679 36.293171 21.348582 0 0 0
31 1 1 0.000000 16.104940 17.468149 33.646089 0 0 0
32 1 1 0.000000 5.071951 24.360324 14.668520 0 0 0
33 1 1 0.000000 8.834105 32.019036 38.737747 0 1 -1
34 1 1 0.000000 35.965633 39.322233 19.127914 -1 0 0
35 1 1 0.000000 6.729846 9.620685 12.197746 0 0 0
36 1 1 0.000000 12.018200 25.798187 4.886780 0 0 0
37 1 1 0.000000 15.907845 18.152177 2.645713 0 0 0
38 1 1 0.000000 13.300839 10.105633 27.816366 0 0 0
39 1 1 0.000000 23.040596 7.240995 15.470279 0 0 0
40 1 1 0.000000 27.100739 0.924873 22.596067 1 0 0
41 1 1 0.000000 21.651761 24.451194 8.632847 0 0 0
42 1 1 0.000000 27.866912 5.492868 30.158399 0 0 0
43 1 1 0.000000 38.912248 6.746593 37.199956 0 0 -1
44 1 1 0.000000 39.530822 16.562324 0.215005 0 -1 1
45 1 1 0.000000 30.757324 18.386662 6.420928 0 0 0
46 1 1 0.000000 1.349043 19.213829 31.987094 0 0 0
47 1 1 0.000000 16.064433 10.163496 9.122283 0 0 0
48 1 1 0.000000 16.179225 17.194199 22.187523 0 0 0
49 1 1 0.000000 9.181490 18.559040 27.756687 0 0 0
50 1 1 0.000000 37.337216 22.387159 10.807803 0 -1 0
51 1 1 0.000000 5.736644 10.099388 3.000125 0 0 0
52 1 1 0.000000 7.759083 36.424571 29.325602 0 0 0
53 1 1 0.000000 3.338376 1.363518 14.202461 1 0 0
54 1 1 0.000000 32.212759 34.275331 26.363323 0 0 0
55 1 1 0.000000 13.570861 2.494360 3.364839 0 0 0
56 1 1 0.000000 24.738511 3.868524 38.225738 0 0 -1
57 1 1 0.000000 16.181402 29.833151 14.120161 0 0 0
58 1 1 0.000000 15.085629 20.595098 13.679858 0 0 0
59 1 1 0.000000 2.808172 27.103085 5.382662 0 1 1
60 1 1 0.000000 5.906723 1.124329 38.588285 0 1 0
61 1 1 0.000000 8.582951 22.015850 37.526050 0 0 0
62 1 1 0.000000 39.641989 36.271996 32.904809 0 0 0
63 1 1 0.000000 39.963655 3.388803 6.155882 0 -1 0
64 1 1 0.000000 22.855637 15.307996 11.208584 0 0 0
65 1 1 0.000000 2.948991 12.630912 25.699418 0 0 0
66 1 1 0.000000 7.047100 32.937266 13.575231 0 1 0
67 1 1 0.000000 21.776186 11.395540 33.008891 0 0 0
68 1 1 0.000000 24.142665 28.130042 31.183495 0 0 0
69 1 1 0.000000 28.930114 32.979758 16.601613 0 0 0
70 1 1 0.000000 33.380021 25.807976 1.826577 0 0 0
71 1 1 0.000000 21.400016 24.408132 19.435624 0 0 0
72 1 1 0.000000 30.217579 25.578332 24.625643 0 0 0
73 1 1 0.000000 25.143224 16.459611 19.393677 0 0 0
74 1 1 0.000000 21.356582 34.337989 7.346090 0 0 0
75 1 1 0.000000 23.911159 36.881729 31.960940 0 0 0
76 1 1 0.000000 35.720409 11.184470 30.561827 0 0 0
77 1 1 0.000000 30.291323 1.025081 11.887908 1 0 0
78 1 1 0.000000 24.164049 29.280146 39.854416 0 0 -1
79 1 1 0.000000 32.619617 0.676888 35.367153 0 0 0
80 1 1 0.000000 38.048973 28.769113 18.467018 0 0 0
81 1 1 0.000000 7.705134 16.735280 18.526415 0 0 0
82 1 1 0.000000 29.554825 12.784281 36.954230 0 0 0
83 1 1 0.000000 1.433762 27.428161 36.664400 0 1 -1
84 1 1 0.000000 6.525393 18.115024 7.747077 0 0 0
85 1 1 0.000000 39.740400 7.934348 19.375886 0 -1 0
86 1 1 0.000000 23.297601 19.107356 28.729862 0 0 0
87 1 1 0.000000 22.978888 4.315286 7.126645 1 0 0
88 1 1 0.000000 9.756569 27.509345 21.432680 0 0 0
89 1 1 0.000000 36.598890 33.940506 11.014128 0 0 0
90 1 1 0.000000 15.931482 33.261677 30.892762 0 0 0
91 1 1 0.000000 3.587084 35.680065 5.628787 0 0 0
92 1 1 0.000000 31.199037 11.589368 13.061401 0 0 0
93 1 1 0.000000 7.988192 27.833381 29.993180 0 0 0
94 1 1 0.000000 16.061116 26.885446 36.718301 0 0 0
95 1 1 0.000000 12.585481 34.317752 6.484240 0 0 0
96 1 1 0.000000 38.466435 28.231342 28.717860 0 0 0

Bonds

1 1 53 63
2 1 43 53
3 1 14 34
4 1 23 42
5 1 5 78
6 1 56 92
7 1 11 77
8 1 27 38
9 1 23 73
10 1 76 88
11 1 19 67
12 1 28 84
13 1 74 79
14 1 3 44
15 1 3 38
16 1 58 86
17 1 13 75
18 1 15 88
19 1 20 83
20 1 2 10
21 1 24 63
22 1 29 92
23 1 81 96
24 1 16 78
25 1 71 72
26 1 23 74
27 1 33 78
28 1 21 75
29 1 11 36
30 1 22 35
31 1 10 44
32 1 18 21
33 1 50 67
34 1 15 96
35 1 2 18
36 1 41 42
37 1 18 94
38 1 12 55
39 1 10 31
40 1 40 74
41 1 36 52
42 1 58 76
43 1 1 86
44 1 14 48
45 1 26 64
46 1 22 81
47 1 30 89
48 1 11 16
49 1 44 63
50 1 4 71
51 1 35 83
52 1 15 89
53 1 91 96
54 1 55 83
55 1 30 65
56 1 62 94
57 1 55 84
58 1 3 36
59 1 45 80
60 1 6 88
61 1 27 84
62 1 22 89
63 1 17 25
64 1 53 71
65 1 9 21
66 1 17 57
67 1 25 79
68 1 8 73
69 1 57 75
70 1 46 93
71 1 5 41
72 1 39 58
73 1 38 92
74 1 4 90
75 1 8 50
76 1 17 45
77 1 46 82
78 1 8 14
79 1 4 43
80 1 30 56
81 1 1 62
82 1 45 95
83 1 6 69
84 1 31 69
85 1 61 86
86 1 29 31
87 1 13 40
88 1 19 94
89 1 68 80
90 1 19 26
91 1 7 85
92 1 9 26
93 1 61 70
94 1 41 70
95 1 27 81
96 1 43 87
97 1 5 39
98 1 62 67
99 1 40 79
100 1 91 95
101 1 47 56
102 1 13 73
103 1 24 85
104 1 49 59
105 1 60 91
106 1 37 61
107 1 54 93
108 1 49 93
109 1 50 72
110 1 9 34
111 1 16 85
112 1 42 57
113 1 2 32
114 1 60 80
115 1 7 28
116 1 37 64
117 1 37 60
118 1 46 66
119 1 33 52
120 1 35 70
121 1 64 82
122 1 12 20
123 1 29 39
124 1 54 59
125 1 12 59
126 1 48 90
127 1 54 68
128 1 7 68
129 1 52 87
130 1 82 90
131 1 47 48
132 1 6 87
133 1 34 66
134 1 51 95
135 1 33 77
136 1 65 76

