Generated by ZY code

187 atoms
1 atom types
266 bonds
1 bond types
0 angles
0 angle types
0 dihedrals
0 dihedral types
0 impropers
0 improper types

0.0000000000000000 50.0000000000000000 xlo xhi
0.0000000000000000 50.0000000000000000 ylo yhi
0.0000000000000000 50.0000000000000000 zlo zhi

Masses

1 1.000

Atoms # full

1 1 1 0.000000 8.445351 48.714832 30.130491 0 0 0
2 1 1 0.000000 48.887158 20.690380 17.327286 0 0 0
3 1 1 0.000000 38.801763 34.207677 5.242658 0 0 0
4 1 1 0.000000 49.898961 38.479635 9.371576 0 -1 0
5 1 1 0.000000 17.449335 22.056990 31.678443 0 0 0
6 1 1 0.000000 4.345060 27.235320 42.640510 0 0 0
7 1 1 0.000000 34.187774 48.499538 4.912810 0 0 0
8 1 1 0.000000 32.630830 22.377660 43.656131 0 0 0
9 1 1 0.000000 20.813600 38.587373 27.012913 0 0 0
10 1 1 0.000000 0.992715 17.771247 43.084974 0 1 0
11 1 1 0.000000 28.337216 13.489937 30.159572 0 0 0
12 1 1 0.000000 46.975762 34.658609 20.993099 0 0 0
13 1 1 0.000000 25.915547 42.934521 9.633247 0 0 0
14 1 1 0.000000 21.726533 34.807501 10.645286 0 0 0
15 1 1 0.000000 5.632188 8.918858 42.772666 0 0 0
16 1 1 0.000000 15.138544 31.048104 15.342789 0 0 0
17 1 1 0.000000 18.892243 28.253934 38.736876 0 0 0
18 1 1 0.000000 16.516704 1.935154 2.104676 0 0 0
19 1 1 0.000000 27.785240 6.267942 37.751211 0 0 0
20 1 1 0.000000 7.225247 26.571177 18.582799 0 0 0
21 1 1 0.000000 25.336141 31.171751 1.274676 0 0 1
22 1 1 0.000000 43.997851 41.426749 33.520512 0 0 0
23 1 1 0.000000 20.537709 13.258395 34.584776 0 0 0
24 1 1 0.000000 34.126622 44.014764 36.948888 0 0 0
25 1 1 0.000000 21.284621 7.182503 45.106337 0 0 0
26 1 1 0.000000 9.832271 11.745551 10.709693 0 0 0
27 1 1 0.000000 37.355278 16.956370 27.212893 0 0 0
28 1 1 0.000000 10.434893 32.385405 23.555771 0 0 0
29 1 1 0.000000 21.357366 30.856666 22.620370 0 0 0
30 1 1 0.000000 4.864049 12.996832 2.089187 0 0 0
31 1 1 0.000000 44.371484 33.104872 30.159418 0 0 0
32 1 1 0.000000 29.189736 36.829957 34.166906 0 0 0
33 1 1 0.000000 2.979392 21.709338 0.904001 0 1 1
34 1 1 0.000000 31.522514 48.326083 44.782639 0 0 0
35 1 1 0.000000 48.531579 6.313314 48.561258 0 0 -1
36 1 1 0.000000 44.287534 42.039725 24.945873 0 0 0
37 1 1 0.000000 13.032202 7.424950 18.871887 0 0 0
38 1 1 0.000000 2.692740 45.196564 46.290435 0 1 0
39 1 1 0.000000 40.189489 6.141939 5.552392 0 0 0
40 1 1 0.000000 40.173217 18.070300 44.343125 1 0 0
41 1 1 0.000000 38.815299 47.712781 20.719784 0 0 0
42 1 1 0.000000 19.679253 15.434107 11.738772 0 0 0
43 1 1 0.000000 36.883119 38.388815 20.029743 0 0 0
44 1 1 0.000000 43.770206 17.561966 35.626992 0 0 0
45 1 1 0.000000 46.249696 15.539050 0.635761 0 0 0
46 1 1 0.000000 37.844276 48.594880 29.878919 -1 0 0
47 1 1 0.000000 20.777258 37.682060 37.759740 0 0 0
48 1 1 0.000000 35.399120 12.199008 38.597141 0 0 0
49 1 1 0.000000 39.125532 25.222684 1.758636 0 0 0
50 1 1 0.000000 5.621772 4.135863 14.446962 0 0 0
51 1 1 0.000000 14.801302 1.453188 43.860769 0 0 0
52 1 1 0.000000 7.107169 17.890097 19.051618 0 0 0
53 1 1 0.000000 8.378084 22.591392 28.577558 0 0 0
54 1 1 0.000000 31.152835 44.056699 24.093499 0 0 0
55 1 1 0.000000 30.833258 23.037495 25.377967 0 0 0
56 1 1 0.000000 32.328650 9.622845 6.897615 0 0 0
57 1 1 0.000000 41.431680 49.180735 48.201646 0 0 -1
58 1 1 0.000000 30.799760 24.005911 2.106410 0 0 0
59 1 1 0.000000 37.918605 15.198542 12.361295 0 0 0
60 1 1 0.000000 27.384328 2.305340 8.382284 0 0 0
61 1 1 0.000000 37.271893 16.957019 3.935437 0 0 0
62 1 1 0.000000 22.135793 8.499747 4.186663 0 0 0
63 1 1 0.000000 14.783973 24.817122 22.837990 0 0 0
64 1 1 0.000000 9.935363 18.794194 44.873494 0 0 0
65 1 1 0.000000 41.986563 32.510549 46.332263 0 0 0
66 1 1 0.000000 39.924352 6.015520 24.477726 0 0 0
67 1 1 0.000000 43.900451 7.247575 15.756282 0 0 0
68 1 1 0.000000 4.972055 46.278926 21.022334 0 0 0
69 1 1 0.000000 37.292286 38.677536 29.804099 0 0 0
70 1 1 0.000000 16.198390 31.649816 31.240198 0 0 0
71 1 1 0.000000 8.759583 30.584425 0.155152 0 0 1
72 1 1 0.000000 13.855871 37.073668 7.173582 0 0 0
73 1 1 0.000000 35.217456 24.309865 10.601920 0 0 0
74 1 1 0.000000 5.016231 32.134301 33.119183 0 1 0
75 1 1 0.000000 23.586432 5.297753 28.544354 0 0 0
76 1 1 0.000000 26.163978 26.953487 9.785144 0 0 0
77 1 1 0.000000 21.067464 20.912984 4.747753 0 0 0
78 1 1 0.000000 40.003085 30.110331 15.036768 0 0 0
79 1 1 0.000000 49.438874 29.262508 13.109544 0 0 0
80 1 1 0.000000 47.506600 49.176274 30.231122 -1 -1 0
81 1 1 0.000000 48.571977 29.007618 3.433479 0 -1 0
82 1 1 0.000000 26.486324 14.907951 41.333389 0 0 -1
83 1 1 0.000000 27.581139 38.399072 18.176221 0 0 0
84 1 1 0.000000 47.153272 38.711441 0.650961 0 -1 1
85 1 1 0.000000 22.288058 45.405952 16.703763 0 0 0
86 1 1 0.000000 28.679000 15.575570 0.226881 0 0 0
87 1 1 0.000000 29.835193 18.573048 17.914612 0 0 0
88 1 1 0.000000 15.503303 25.233956 48.266486 0 0 0
89 1 1 0.000000 1.509841 11.233385 18.961272 0 0 0
90 1 1 0.000000 46.610429 0.830406 40.449500 0 0 0
91 1 1 0.000000 34.052963 29.076167 31.869445 0 0 0
92 1 1 0.000000 1.130517 27.734522 26.214051 0 0 0
93 1 1 0.000000 12.684009 41.920705 24.899583 0 0 0
94 1 1 0.000000 25.044123 11.836355 22.194570 0 0 0
95 1 1 0.000000 6.784018 49.022213 39.253444 0 0 0
96 1 1 0.000000 17.656103 34.147353 47.381508 0 0 0
97 1 1 0.000000 30.823402 48.885083 15.747742 0 0 0
98 1 1 0.000000 24.953159 28.653889 30.951952 0 0 0
99 1 1 0.000000 37.967665 36.237674 38.972807 0 0 0
100 1 1 0.000000 49.932560 18.013851 26.949014 0 -1 0
101 1 1 0.000000 7.628113 42.984750 10.369265 0 0 0
102 1 1 0.000000 34.997297 6.300131 14.427161 0 0 0
103 1 1 0.000000 4.184563 36.747234 44.389121 -1 0 0
104 1 1 0.000000 48.508799 32.809448 38.849518 0 0 0
105 1 1 0.000000 49.305304 24.861715 34.533002 0 0 0
106 1 1 0.000000 3.600736 20.109112 9.817027 0 0 0
107 1 1 0.000000 27.956170 29.431453 39.486083 0 0 0
108 1 1 0.000000 10.696577 39.645222 32.763188 0 1 0
109 1 1 0.000000 22.680791 46.615305 25.409814 0 0 0
110 1 1 0.000000 43.027590 41.489356 15.233446 0 0 0
111 1 1 0.000000 0.947838 5.740680 35.066791 0 0 0
112 1 1 0.000000 29.734830 27.749690 18.116577 0 0 0
113 1 1 0.000000 12.504496 43.034469 0.612489 0 0 0
114 1 1 0.000000 12.234952 48.653503 16.821736 0 0 0
115 1 1 0.000000 47.025003 0.893360 21.656708 0 0 0
116 1 1 0.000000 38.231804 40.662195 48.738047 0 0 0
117 1 1 0.000000 25.862436 44.915743 33.697617 0 0 0
118 1 1 0.000000 30.989877 3.961202 22.759125 0 0 0
119 1 1 0.000000 22.474456 45.511273 41.704640 0 0 -1
120 1 1 0.000000 16.768807 4.529613 10.313113 0 0 0
121 1 1 0.000000 0.147470 46.937495 4.564698 0 1 0
122 1 1 0.000000 22.188275 19.965765 24.144857 0 0 0
123 1 1 0.000000 16.229057 45.201821 9.212811 0 0 0
124 1 1 0.000000 34.548470 11.628257 21.145381 0 0 0
125 1 1 0.000000 6.342410 4.698358 23.728546 0 0 0
126 1 1 0.000000 7.340257 2.232906 48.033471 0 0 -1
127 1 1 0.000000 7.363004 13.045618 26.404174 0 0 0
128 1 1 0.000000 10.772631 25.241589 36.729319 0 0 0
129 1 1 0.000000 41.641086 43.593858 6.062845 0 0 0
130 1 1 0.000000 16.705704 11.267578 26.568675 0 0 0
131 1 1 0.000000 9.872086 6.478634 33.284937 0 0 0
132 1 1 0.000000 30.798721 39.650032 2.937320 0 0 1
133 1 1 0.000000 2.805674 14.068970 34.820778 0 0 0
134 1 1 0.000000 31.731592 33.804303 10.769452 0 0 0
135 1 1 0.000000 48.207653 7.776603 27.221356 0 -1 0
136 1 1 0.000000 11.198612 16.378453 34.956815 0 0 0
137 1 1 0.000000 30.835072 7.794460 45.456488 1 0 -1
138 1 1 0.000000 7.940166 30.218118 10.745773 0 0 0
139 1 1 0.000000 29.909848 34.847409 25.416341 0 0 0
140 1 1 0.000000 41.711466 9.100447 33.088708 0 0 0
141 1 1 0.000000 15.675608 15.975777 19.237140 0 0 0
142 1 1 0.000000 46.207035 10.309145 41.035154 0 0 0
143 1 1 0.000000 47.134531 13.681525 9.132521 0 0 0
144 1 1 0.000000 27.506688 38.348935 43.525826 0 0 0
145 1 1 0.000000 49.417961 47.426178 13.055788 -1 -1 0
146 1 1 0.000000 5.418959 38.016144 18.017878 0 1 0
147 1 1 0.000000 33.254317 5.771087 31.414914 0 0 0
148 1 1 0.000000 37.478928 3.210549 39.181435 0 0 0
149 1 1 0.000000 0.360532 5.419671 7.771336 0 0 0
150 1 1 0.000000 15.960707 28.112483 6.025687 0 0 0
151 1 1 0.000000 20.260157 23.553450 16.291212 0 0 0
152 1 1 0.000000 21.575963 4.569494 19.356764 0 0 0
153 1 1 0.000000 46.064122 25.195909 45.003615 0 0 0
154 1 1 0.000000 9.054799 0.863711 6.935058 1 0 0
155 1 1 0.000000 18.640185 4.223944 36.576436 0 0 0
156 1 1 0.000000 14.931784 11.117905 41.155288 0 0 0
157 1 1 0.000000 24.992510 21.478063 35.502940 0 0 0
158 1 1 0.000000 12.661325 22.403147 12.580192 0 0 0
159 1 1 0.000000 11.708087 19.249463 3.656706 0 0 0
160 1 1 0.000000 2.553606 42.193277 35.905754 0 1 0
161 1 1 0.000000 38.099829 30.217105 23.466678 0 0 0
162 1 1 0.000000 34.524075 41.667013 12.566791 0 0 0
163 1 1 0.000000 16.897911 45.174318 33.340407 0 0 0
164 1 1 0.000000 42.748020 23.780960 28.185657 0 0 0
165 1 1 0.000000 29.011686 18.067755 9.092591 0 0 0
166 1 1 0.000000 17.673290 19.903187 40.741785 0 0 0
167 1 1 0.000000 43.659298 14.586948 21.364275 0 0 0
168 1 1 0.000000 34.076371 20.653080 34.691483 0 0 0
169 1 1 0.000000 19.627914 15.757941 48.251567 0 0 0
170 1 1 0.000000 20.969537 41.966123 0.230347 -1 0 0
171 1 1 0.000000 44.950953 22.403327 8.573474 0 0 0
172 1 1 0.000000 12.806386 8.942450 49.569348 0 0 -1
173 1 1 0.000000 15.147264 2.316631 25.598248 0 0 0
174 1 1 0.000000 24.667308 0.191031 0.002959 0 0 0
175 1 1 0.000000 26.525391 10.091257 13.819998 0 0 0
176 1 1 0.000000 44.711273 42.351832 42.407978 0 0 0
177 1 1 0.000000 14.502607 39.647111 15.898946 0 0 0
178 1 1 0.000000 39.405981 8.451764 46.507519 0 0 0
179 1 1 0.000000 38.942974 22.341644 19.354578 0 0 0
180 1 1 0.000000 23.949571 23.452907 45.719396 0 0 0
181 1 1 0.000000 11.741325 33.722797 40.902748 0 0 0
182 1 1 0.000000 12.988103 42.655965 41.519134 0 0 0
183 1 1 0.000000 41.277935 49.782851 12.140105 0 0 0
184 1 1 0.000000 5.559768 38.120372 2.904564 0 0 1
185 1 1 0.000000 32.892847 32.092231 47.541591 0 0 -1
186 1 1 0.000000 40.891072 27.917211 38.012925 0 0 0
187 1 1 0.000000 3.160256 39.855954 26.689722 0 0 0

Bonds

1 1 161 168
2 1 26 62
3 1 3 183
4 1 98 116
5 1 63 73
6 1 48 56
7 1 1 145
8 1 28 163
9 1 4 92
10 1 43 91
11 1 12 150
12 1 42 60
13 1 65 162
14 1 76 177
15 1 78 93
16 1 29 114
17 1 14 73
18 1 68 149
19 1 53 146
20 1 57 170
21 1 41 69
22 1 3 99
23 1 42 93
24 1 169 173
25 1 71 101
26 1 10 120
27 1 146 155
28 1 87 97
29 1 44 142
30 1 17 130
31 1 83 116
32 1 6 69
33 1 111 131
34 1 15 155
35 1 142 145
36 1 20 123
37 1 150 157
38 1 162 185
39 1 35 177
40 1 148 157
41 1 135 136
42 1 55 164
43 1 63 166
44 1 67 130
45 1 125 167
46 1 161 176
47 1 33 51
48 1 89 100
49 1 58 176
50 1 126 158
51 1 48 55
52 1 98 179
53 1 72 170
54 1 26 150
55 1 91 140
56 1 14 60
57 1 101 152
58 1 159 169
59 1 21 158
60 1 25 77
61 1 77 86
62 1 4 35
63 1 146 184
64 1 98 110
65 1 133 181
66 1 18 52
67 1 18 184
68 1 89 168
69 1 62 168
70 1 130 155
71 1 19 176
72 1 52 175
73 1 151 179
74 1 160 183
75 1 23 94
76 1 97 177
77 1 69 74
78 1 20 183
79 1 28 182
80 1 8 89
81 1 62 83
82 1 72 103
83 1 66 85
84 1 87 151
85 1 4 83
86 1 78 121
87 1 113 157
88 1 87 179
89 1 103 121
90 1 64 133
91 1 2 33
92 1 18 173
93 1 122 141
94 1 74 126
95 1 127 164
96 1 73 110
97 1 36 160
98 1 122 147
99 1 5 49
100 1 75 136
101 1 120 147
102 1 84 185
103 1 22 105
104 1 47 119
105 1 118 173
106 1 42 79
107 1 9 37
108 1 46 109
109 1 28 145
110 1 81 103
111 1 120 152
112 1 91 164
113 1 134 184
114 1 1 141
115 1 107 129
116 1 11 156
117 1 128 170
118 1 30 39
119 1 30 105
120 1 20 85
121 1 90 107
122 1 139 182
123 1 32 65
124 1 105 111
125 1 7 97
126 1 75 124
127 1 29 53
128 1 66 102
129 1 77 169
130 1 29 158
131 1 3 121
132 1 132 185
133 1 101 123
134 1 112 167
135 1 55 186
136 1 78 186
137 1 85 129
138 1 1 135
139 1 68 123
140 1 88 99
141 1 106 182
142 1 52 122
143 1 72 92
144 1 27 93
145 1 15 88
146 1 19 186
147 1 92 104
148 1 26 50
149 1 37 68
150 1 54 60
151 1 15 156
152 1 11 75
153 1 108 160
154 1 25 132
155 1 17 113
156 1 25 102
157 1 116 119
158 1 63 134
159 1 45 107
160 1 38 82
161 1 113 163
162 1 45 102
163 1 80 147
164 1 34 35
165 1 8 39
166 1 40 149
167 1 166 181
168 1 58 167
169 1 165 172
170 1 34 88
171 1 24 141
172 1 24 138
173 1 7 149
174 1 49 79
175 1 66 118
176 1 154 156
177 1 22 65
178 1 58 159
179 1 51 64
180 1 111 128
181 1 6 128
182 1 129 166
183 1 53 134
184 1 41 54
185 1 114 174
186 1 172 174
187 1 22 110
188 1 13 37
189 1 43 115
190 1 6 30
191 1 36 114
192 1 14 21
193 1 16 187
194 1 47 187
195 1 17 100
196 1 21 96
197 1 95 154
198 1 39 174
199 1 95 115
200 1 94 163
201 1 125 187
202 1 34 96
203 1 47 125
204 1 84 96
205 1 153 161
206 1 82 180
207 1 44 86
208 1 2 11
209 1 172 181
210 1 57 162
211 1 81 171
212 1 48 90
213 1 165 180
214 1 27 31
215 1 12 59
216 1 124 127
217 1 45 143
218 1 108 131
219 1 2 100
220 1 12 117
221 1 61 133
222 1 132 137
223 1 94 117
224 1 117 144
225 1 13 135
226 1 112 165
227 1 24 144
228 1 61 86
229 1 7 178
230 1 31 80
231 1 56 180
232 1 40 151
233 1 13 99
234 1 104 108
235 1 124 140
236 1 56 76
237 1 43 61
238 1 9 79
239 1 40 148
240 1 44 136
241 1 115 139
242 1 8 27
243 1 64 126
244 1 10 82
245 1 138 153
246 1 36 178
247 1 33 50
248 1 41 80
249 1 10 104
250 1 5 19
251 1 95 143
252 1 57 76
253 1 171 175
254 1 46 142
255 1 51 71
256 1 153 178
257 1 70 131
258 1 49 148
259 1 5 9
260 1 38 46
261 1 50 143
262 1 119 152
263 1 90 140
264 1 54 118
265 1 67 159
266 1 23 171

