Generated by ZY code

96 atoms
1 atom types
136 bonds
1 bond types
0 angles
0 angle types
0 dihedrals
0 dihedral types
0 impropers
0 improper types

0.0000000000000000 40.0000000000000000 xlo xhi
0.0000000000000000 40.0000000000000000 ylo yhi
0.0000000000000000 40.0000000000000000 zlo zhi

Masses

1 1.000

Atoms # full

1 1 1 0.000000 39.925527 28.210434 31.992082 0 -1 0
2 1 1 0.000000 3.212107 13.067718 25.677675 0 0 0
3 1 1 0.000000 4.335817 2.634891 32.995755 1 0 -1
4 1 1 0.000000 26.549307 3.473912 19.022400 1 0 0
5 1 1 0.000000 13.687499 13.310952 17.954216 0 0 0
6 1 1 0.000000 34.792500 7.009466 16.300824 0 -1 0
7 1 1 0.000000 3.385139 34.603192 21.482359 0 0 0
8 1 1 0.000000 1.019310 0.559768 14.730575 0 0 0
9 1 1 0.000000 6.958895 34.269402 34.387829 0 0 0
10 1 1 0.000000 10.387605 22.457210 4.030924 0 0 0
11 1 1 0.000000 37.901738 8.922645 33.421735 0 0 0
12 1 1 0.000000 16.338892 30.438957 38.238462 0 0 -1
13 1 1 0.000000 18.732979 13.996425 29.459908 0 0 0
14 1 1 0.000000 31.531547 32.465259 35.025592 0 0 0
15 1 1 0.000000 5.169762 32.160714 11.714391 0 1 0
16 1 1 0.000000 19.988020 29.670093 22.287339 0 0 0
17 1 1 0.000000 39.258427 34.942766 37.802820 0 0 -1
18 1 1 0.000000 21.642527 4.330619 33.521230 1 0 -1
19 1 1 0.000000 13.280989 38.393470 10.680103 -1 0 0
20 1 1 0.000000 10.439837 37.363504 26.678695 0 0 0
21 1 1 0.000000 27.335086 23.576949 9.992266 0 0 0
22 1 1 0.000000 13.510777 6.282192 34.926150 0 0 0
23 1 1 0.000000 38.073678 20.990489 24.190671 0 0 0
24 1 1 0.000000 5.409252 8.445915 17.053621 0 0 0
25 1 1 0.000000 20.017378 28.834360 13.028218 0 0 0
26 1 1 0.000000 28.569487 11.492137 34.740082 0 0 0
27 1 1 0.000000 4.258038 7.827040 0.861088 0 1 1
28 1 1 0.000000 25.120561 5.616100 1.738416 0 0 0
29 1 1 0.000000 29.602694 14.508101 16.566620 0 0 0
30 1 1 0.000000 1.139684 26.349593 2.056085 0 1 1
31 1 1 0.000000 23.336689 36.957877 37.427147 0 0 0
32 1 1 0.000000 27.798786 37.287899 27.176114 0 0 0
33 1 1 0.000000 2.785018 17.565117 1.826168 0 0 1
34 1 1 0.000000 24.884727 19.881425 35.834298 0 0 0
35 1 1 0.000000 13.551739 15.198792 8.883636 0 0 0
36 1 1 0.000000 6.202062 33.222017 3.263312 0 0 0
37 1 1 0.000000 35.592168 32.716417 13.774331 0 0 0
38 1 1 0.000000 19.663880 38.243857 18.272726 0 0 0
39 1 1 0.000000 39.859310 8.484988 8.812609 0 0 0
40 1 1 0.000000 13.610595 29.830247 7.562368 0 0 0
41 1 1 0.000000 12.593472 23.705204 14.162280 0 0 0
42 1 1 0.000000 33.842794 24.115430 16.272133 0 0 0
43 1 1 0.000000 38.910125 18.077077 32.937219 0 -1 0
44 1 1 0.000000 31.400757 25.112128 30.101184 0 0 0
45 1 1 0.000000 25.110365 29.360243 1.659207 0 0 0
46 1 1 0.000000 34.227031 39.524781 20.939357 0 0 0
47 1 1 0.000000 6.370909 13.095047 34.045472 0 0 0
48 1 1 0.000000 17.084629 5.453624 4.590889 0 0 0
49 1 1 0.000000 5.226181 16.195908 11.275512 0 0 0
50 1 1 0.000000 33.731154 28.734956 5.452712 0 0 0
51 1 1 0.000000 7.619633 24.588527 35.043776 0 0 0
52 1 1 0.000000 20.802982 19.370052 14.892791 0 0 0
53 1 1 0.000000 20.017457 35.179059 5.320652 0 0 0
54 1 1 0.000000 17.467802 5.934753 14.672698 0 0 0
55 1 1 0.000000 7.184274 19.781844 19.942631 0 0 0
56 1 1 0.000000 20.490793 12.783529 39.169897 0 0 0
57 1 1 0.000000 30.702773 36.695983 2.706143 0 0 0
58 1 1 0.000000 9.586279 6.348334 26.174043 0 0 0
59 1 1 0.000000 38.059908 36.752156 28.894057 0 0 0
60 1 1 0.000000 19.198563 35.677397 29.064383 0 0 0
61 1 1 0.000000 17.813499 5.048988 24.427680 0 0 0
62 1 1 0.000000 0.532868 24.402070 10.489909 0 0 0
63 1 1 0.000000 31.135782 2.772197 33.274187 0 0 0
64 1 1 0.000000 11.641538 13.939482 0.334203 0 0 0
65 1 1 0.000000 11.885028 32.102003 18.919225 0 0 0
66 1 1 0.000000 27.500479 33.256860 10.432915 0 0 0
67 1 1 0.000000 21.797203 12.422378 21.096453 0 0 0
68 1 1 0.000000 15.717611 21.383558 35.564317 0 0 0
69 1 1 0.000000 23.308657 2.068241 9.707533 0 0 0
70 1 1 0.000000 35.620177 29.520065 23.457546 0 0 0
71 1 1 0.000000 32.204806 0.843344 10.650145 1 0 0
72 1 1 0.000000 10.374429 0.671573 18.431220 0 0 0
73 1 1 0.000000 2.661885 26.577468 18.023880 0 0 0
74 1 1 0.000000 17.900569 21.286700 23.698337 0 0 0
75 1 1 0.000000 32.960988 22.704227 39.111852 0 0 0
76 1 1 0.000000 27.769434 33.189703 19.738899 0 0 0
77 1 1 0.000000 10.794880 19.091027 27.798139 0 0 0
78 1 1 0.000000 14.006909 27.947451 29.932992 0 0 0
79 1 1 0.000000 0.446363 4.294198 24.687976 1 0 0
80 1 1 0.000000 39.032083 15.755266 17.680064 0 0 0
81 1 1 0.000000 26.743841 24.497693 21.725833 0 0 0
82 1 1 0.000000 35.000781 12.786412 2.163211 0 -1 0
83 1 1 0.000000 36.650330 3.353780 0.561094 0 0 0
84 1 1 0.000000 29.907995 8.961137 9.063602 0 0 0
85 1 1 0.000000 8.900685 5.785384 8.927646 0 0 0
86 1 1 0.000000 5.128979 26.351902 25.675701 0 0 0
87 1 1 0.000000 12.853167 38.255250 0.253221 0 0 1
88 1 1 0.000000 26.357090 7.367433 26.771517 1 0 0
89 1 1 0.000000 27.795785 17.079141 27.856196 0 0 0
90 1 1 0.000000 34.326346 10.984352 24.250831 0 0 0
91 1 1 0.000000 27.024191 15.967390 3.648095 0 0 0
92 1 1 0.000000 35.442626 17.223566 9.714036 0 -1 0
93 1 1 0.000000 19.429586 22.126817 5.424245 0 0 0
94 1 1 0.000000 23.069024 27.782059 32.440531 0 0 0
95 1 1 0.000000 21.679215 12.320405 9.249992 0 0 0
96 1 1 0.000000 38.853974 37.076056 6.666233 -1 -1 0

Bonds

1 1 45 60
2 1 52 75
3 1 74 78
4 1 17 86
5 1 46 58
6 1 59 79
7 1 10 40
8 1 2 46
9 1 12 79
10 1 6 47
11 1 56 88
12 1 30 68
13 1 42 86
14 1 58 78
15 1 66 84
16 1 41 78
17 1 24 63
18 1 2 75
19 1 72 73
20 1 57 75
21 1 56 90
22 1 9 65
23 1 46 70
24 1 8 40
25 1 2 4
26 1 15 48
27 1 61 65
28 1 22 85
29 1 26 80
30 1 65 89
31 1 27 92
32 1 22 60
33 1 35 69
34 1 48 67
35 1 5 74
36 1 28 56
37 1 9 68
38 1 6 38
39 1 41 49
40 1 16 81
41 1 14 91
42 1 63 94
43 1 18 64
44 1 7 63
45 1 41 52
46 1 10 77
47 1 48 54
48 1 12 68
49 1 43 82
50 1 15 59
51 1 18 31
52 1 71 91
53 1 4 87
54 1 3 91
55 1 10 94
56 1 18 96
57 1 39 67
58 1 12 77
59 1 17 27
60 1 31 35
61 1 39 83
62 1 43 58
63 1 14 92
64 1 21 66
65 1 15 83
66 1 23 85
67 1 80 89
68 1 39 49
69 1 14 52
70 1 16 36
71 1 16 90
72 1 3 77
73 1 93 96
74 1 13 55
75 1 26 62
76 1 5 20
77 1 59 73
78 1 80 82
79 1 25 55
80 1 30 31
81 1 38 67
82 1 44 90
83 1 1 8
84 1 19 49
85 1 28 88
86 1 3 70
87 1 6 64
88 1 27 47
89 1 81 85
90 1 1 25
91 1 24 72
92 1 23 81
93 1 13 47
94 1 35 44
95 1 53 93
96 1 34 86
97 1 32 72
98 1 40 42
99 1 29 92
100 1 1 17
101 1 20 28
102 1 4 25
103 1 69 87
104 1 57 66
105 1 36 38
106 1 19 54
107 1 87 94
108 1 5 61
109 1 55 73
110 1 23 88
111 1 20 30
112 1 42 45
113 1 32 76
114 1 34 45
115 1 50 54
116 1 13 51
117 1 29 60
118 1 11 84
119 1 74 76
120 1 32 44
121 1 9 50
122 1 8 50
123 1 24 89
124 1 7 11
125 1 33 83
126 1 69 82
127 1 51 93
128 1 43 70
129 1 34 37
130 1 62 71
131 1 33 51
132 1 19 76
133 1 53 95
134 1 64 84
135 1 53 71
136 1 57 61

