Generated by ZY

187 atoms
1 atom types
266 bonds
1 bond types

0.0000000000000000 50.0000000000000000 xlo xhi
0.0000000000000000 50.0000000000000000 ylo yhi
0.0000000000000000 50.0000000000000000 zlo zhi

Masses

1 1.000

Atoms # full

1 1 1 0.000000 45.368364 18.661829 39.390973 0 -1 0
2 1 1 0.000000 21.864359 32.305376 20.540345 0 0 0
3 1 1 0.000000 33.682043 12.380715 3.534988 0 0 1
4 1 1 0.000000 15.626373 46.029978 41.561217 -1 0 0
5 1 1 0.000000 14.976539 5.267582 45.030043 0 0 0
6 1 1 0.000000 18.810924 10.247644 22.459537 0 0 0
7 1 1 0.000000 8.225536 41.217810 40.699954 0 0 0
8 1 1 0.000000 31.713923 29.868567 7.818680 0 0 0
9 1 1 0.000000 20.770424 42.788027 12.103989 0 0 0
10 1 1 0.000000 28.112951 39.286793 8.136885 0 0 0
11 1 1 0.000000 43.995978 28.458016 28.006728 0 0 0
12 1 1 0.000000 42.028751 7.377153 0.754159 0 0 0
13 1 1 0.000000 37.659004 45.342440 31.244036 0 0 0
14 1 1 0.000000 44.321530 31.659436 49.638726 0 0 0
15 1 1 0.000000 4.821317 31.469678 20.404994 0 1 0
16 1 1 0.000000 29.680359 13.873780 45.519403 0 0 0
17 1 1 0.000000 22.798386 15.416111 16.443707 0 0 0
18 1 1 0.000000 28.149109 47.202996 13.643884 -1 0 0
19 1 1 0.000000 39.058079 36.487677 5.495627 0 0 1
20 1 1 0.000000 49.898109 44.686198 44.140826 0 -1 0
21 1 1 0.000000 0.991673 39.006052 34.448101 0 0 0
22 1 1 0.000000 7.977955 6.721810 10.058537 1 0 0
23 1 1 0.000000 12.077800 33.291637 2.325082 0 0 1
24 1 1 0.000000 9.341441 19.734596 47.678549 0 0 -1
25 1 1 0.000000 13.781409 39.043422 17.712683 0 0 0
26 1 1 0.000000 40.533163 36.681454 29.494591 0 0 0
27 1 1 0.000000 46.409659 40.796727 1.462765 0 0 0
28 1 1 0.000000 6.030190 22.406993 14.043992 0 0 0
29 1 1 0.000000 35.709755 3.505159 26.461249 0 0 0
30 1 1 0.000000 32.227234 4.214369 8.471063 1 0 0
31 1 1 0.000000 43.465613 12.219242 32.186041 0 0 0
32 1 1 0.000000 13.440889 17.034498 25.861382 0 0 0
33 1 1 0.000000 37.206688 11.351236 25.812962 0 0 0
34 1 1 0.000000 33.190391 42.561912 47.895347 0 0 0
35 1 1 0.000000 46.848709 12.757386 23.710146 0 0 0
36 1 1 0.000000 21.606386 10.853753 41.133780 0 0 0
37 1 1 0.000000 26.175950 44.814204 39.049336 0 0 0
38 1 1 0.000000 15.935334 6.973339 3.897093 0 0 0
39 1 1 0.000000 22.043570 1.787368 7.994673 0 0 0
40 1 1 0.000000 5.199948 31.720087 28.834423 0 0 0
41 1 1 0.000000 27.726896 38.882205 17.071297 0 0 0
42 1 1 0.000000 31.363811 31.610304 33.736101 0 0 0
43 1 1 0.000000 39.575062 28.589029 11.409286 0 0 0
44 1 1 0.000000 40.928760 13.733906 16.791685 0 0 0
45 1 1 0.000000 37.276161 7.079878 43.658064 0 0 0
46 1 1 0.000000 10.485129 14.521342 14.475620 0 0 0
47 1 1 0.000000 25.900070 45.452623 2.341693 -1 0 0
48 1 1 0.000000 31.127168 9.722852 31.610168 0 0 0
49 1 1 0.000000 13.903479 44.814928 26.071699 0 0 0
50 1 1 0.000000 22.739942 26.317266 6.050097 0 0 0
51 1 1 0.000000 24.648845 10.735472 7.580589 0 0 0
52 1 1 0.000000 12.447807 39.320411 8.511968 0 0 0
53 1 1 0.000000 9.920374 48.228219 18.271842 -1 0 0
54 1 1 0.000000 29.592165 35.029636 0.423280 0 0 0
55 1 1 0.000000 21.547289 32.107506 48.294462 0 0 0
56 1 1 0.000000 34.863763 48.266678 40.821680 -1 0 0
57 1 1 0.000000 8.525544 41.987774 49.016383 0 0 -1
58 1 1 0.000000 45.509868 44.930251 11.054876 -1 0 0
59 1 1 0.000000 23.077601 33.117212 11.033862 0 0 0
60 1 1 0.000000 40.505088 20.226308 27.891282 0 0 0
61 1 1 0.000000 19.097852 0.339022 18.363449 1 0 0
62 1 1 0.000000 41.407481 48.048020 49.066774 -1 0 0
63 1 1 0.000000 21.219977 40.884644 45.083897 0 0 0
64 1 1 0.000000 0.923202 44.945574 19.855622 0 1 0
65 1 1 0.000000 29.193005 6.540676 40.592064 0 0 0
66 1 1 0.000000 36.503618 26.977191 0.726059 0 0 0
67 1 1 0.000000 13.689983 25.592248 40.927534 0 0 0
68 1 1 0.000000 36.940756 47.682150 15.645211 -1 0 0
69 1 1 0.000000 47.946979 13.551654 48.608982 0 -1 -1
70 1 1 0.000000 25.600928 4.969133 26.180370 1 0 0
71 1 1 0.000000 6.993077 31.309860 10.059975 0 0 0
72 1 1 0.000000 46.206935 21.475759 21.248882 0 -1 0
73 1 1 0.000000 36.556274 44.834832 6.692999 -1 0 0
74 1 1 0.000000 48.432686 27.938487 7.395241 0 0 0
75 1 1 0.000000 42.959655 40.010236 17.680125 0 0 0
76 1 1 0.000000 31.079655 23.826703 38.989241 0 0 0
77 1 1 0.000000 49.734485 49.166060 3.780166 -1 -1 1
78 1 1 0.000000 38.334199 32.264811 21.029679 0 0 0
79 1 1 0.000000 20.502147 38.630797 3.867097 0 0 0
80 1 1 0.000000 36.205353 20.835856 7.469110 0 0 0
81 1 1 0.000000 22.527758 24.671662 15.501311 0 0 0
82 1 1 0.000000 26.121629 23.121962 23.315041 0 0 0
83 1 1 0.000000 13.530643 14.769838 41.471104 0 0 0
84 1 1 0.000000 2.856998 0.122182 13.352700 0 0 0
85 1 1 0.000000 26.909404 16.157610 37.063984 0 0 0
86 1 1 0.000000 20.898170 14.461451 49.708802 0 0 -1
87 1 1 0.000000 15.632946 25.176682 0.154992 0 0 0
88 1 1 0.000000 1.941921 6.114323 35.625618 0 0 0
89 1 1 0.000000 28.108380 26.278297 46.538828 0 0 -1
90 1 1 0.000000 29.704943 34.631349 24.779478 0 0 0
91 1 1 0.000000 12.811542 29.884831 17.349114 0 0 0
92 1 1 0.000000 4.154317 12.716483 41.646645 0 0 0
93 1 1 0.000000 23.321533 15.354100 27.651583 0 0 0
94 1 1 0.000000 14.542808 21.360770 17.986432 0 0 0
95 1 1 0.000000 28.454521 41.174251 30.543028 0 0 0
96 1 1 0.000000 8.116223 23.515219 23.131175 0 0 0
97 1 1 0.000000 45.181005 2.715966 30.460795 1 0 0
98 1 1 0.000000 28.598378 20.197229 2.565765 0 0 0
99 1 1 0.000000 15.131681 35.688292 42.955015 0 0 0
100 1 1 0.000000 48.236949 25.562103 44.110163 0 -1 -1
101 1 1 0.000000 11.346740 7.312032 19.283856 0 0 0
102 1 1 0.000000 30.136848 29.783550 17.742076 0 0 0
103 1 1 0.000000 34.269788 31.939869 42.175943 0 0 -1
104 1 1 0.000000 2.714624 34.130841 2.310812 0 0 1
105 1 1 0.000000 15.189984 29.713960 32.895174 0 0 0
106 1 1 0.000000 8.256423 23.668462 31.904953 0 0 0
107 1 1 0.000000 42.352043 47.578569 22.347582 -1 0 0
108 1 1 0.000000 18.038251 8.842693 13.139600 0 0 0
109 1 1 0.000000 16.406178 46.323664 0.193750 0 0 0
110 1 1 0.000000 35.234267 41.337317 23.205995 0 0 0
111 1 1 0.000000 7.187827 32.330204 38.093854 0 0 0
112 1 1 0.000000 21.245524 46.867570 30.151153 0 0 0
113 1 1 0.000000 22.467024 33.414626 29.433561 0 0 0
114 1 1 0.000000 32.427857 18.863579 29.943963 0 0 0
115 1 1 0.000000 25.404637 24.509506 32.292441 0 0 0
116 1 1 0.000000 5.586890 13.809824 22.879744 0 0 0
117 1 1 0.000000 4.435349 0.015771 27.288337 1 0 0
118 1 1 0.000000 3.678056 42.130471 7.579100 0 0 0
119 1 1 0.000000 38.171112 5.206000 34.903309 0 0 0
120 1 1 0.000000 42.527494 5.347513 18.814823 0 0 0
121 1 1 0.000000 7.384709 29.616238 45.986659 0 0 0
122 1 1 0.000000 29.620487 20.107083 13.240458 0 0 0
123 1 1 0.000000 23.428982 49.650370 45.442143 -1 0 0
124 1 1 0.000000 19.766213 39.047332 36.187728 0 0 0
125 1 1 0.000000 6.116292 40.358273 25.017152 0 0 0
126 1 1 0.000000 49.655574 27.148474 34.827105 0 0 0
127 1 1 0.000000 17.129205 20.740914 33.204317 0 0 0
128 1 1 0.000000 5.349215 38.080922 15.361929 0 1 0
129 1 1 0.000000 24.123518 30.402374 39.620524 0 0 0
130 1 1 0.000000 21.356691 3.231945 35.997172 1 0 0
131 1 1 0.000000 0.350647 35.648381 43.936723 0 0 0
132 1 1 0.000000 40.620055 39.511246 44.670697 0 0 0
133 1 1 0.000000 5.893980 21.440084 39.792118 0 0 -1
134 1 1 0.000000 43.459633 42.519590 37.134370 -1 0 0
135 1 1 0.000000 0.674754 12.776546 15.006955 0 0 0
136 1 1 0.000000 1.515503 47.727741 36.085369 0 0 0
137 1 1 0.000000 7.365997 49.656719 43.006712 0 0 0
138 1 1 0.000000 33.558508 12.009510 12.162954 0 0 0
139 1 1 0.000000 38.447531 16.346444 47.112466 0 0 0
140 1 1 0.000000 39.348502 24.227129 43.189433 0 0 -1
141 1 1 0.000000 17.146434 11.431389 32.545980 0 0 0
142 1 1 0.000000 36.913882 23.293732 18.244132 0 0 0
143 1 1 0.000000 10.509493 48.532403 33.763811 0 0 0
144 1 1 0.000000 13.546867 34.453723 25.273956 0 0 0
145 1 1 0.000000 48.015886 35.736955 24.081956 0 0 0
146 1 1 0.000000 35.894186 36.928044 13.425922 0 0 0
147 1 1 0.000000 26.384477 6.579717 0.072193 0 0 0
148 1 1 0.000000 43.619270 1.027159 41.035520 1 -1 0
149 1 1 0.000000 49.652578 18.970852 31.121978 0 0 0
150 1 1 0.000000 14.741265 25.450626 9.207403 0 0 0
151 1 1 0.000000 29.635512 13.897284 21.970570 0 0 0
152 1 1 0.000000 48.837354 7.016485 8.180853 0 0 0
153 1 1 0.000000 30.097086 0.762422 33.179478 0 0 0
154 1 1 0.000000 15.977756 3.600711 27.246279 1 0 0
155 1 1 0.000000 6.014206 24.575401 4.037743 0 0 0
156 1 1 0.000000 20.334535 17.725236 8.641630 0 0 0
157 1 1 0.000000 47.547324 29.113758 15.917144 0 -1 0
158 1 1 0.000000 25.571405 6.000086 15.633318 0 0 0
159 1 1 0.000000 7.553774 15.186912 32.803143 0 0 0
160 1 1 0.000000 38.513640 26.355721 34.996753 0 0 0
161 1 1 0.000000 11.760817 6.795332 36.971763 0 0 0
162 1 1 0.000000 33.370040 5.304280 17.817198 0 0 0
163 1 1 0.000000 11.692901 17.755004 5.852323 0 0 0
164 1 1 0.000000 34.284528 26.759511 26.777483 0 0 0
165 1 1 0.000000 48.125818 36.033250 9.902187 0 0 0
166 1 1 0.000000 8.255869 7.572534 28.514845 0 0 0
167 1 1 0.000000 29.120921 47.646445 23.197905 0 0 0
168 1 1 0.000000 45.511432 9.319537 41.178366 0 0 -1
169 1 1 0.000000 33.242040 1.396057 49.923492 0 0 0
170 1 1 0.000000 13.965093 48.814674 9.046266 -1 0 0
171 1 1 0.000000 1.436376 17.243550 6.510028 0 0 0
172 1 1 0.000000 21.467438 20.907434 43.029685 0 0 0
173 1 1 0.000000 7.193925 11.376573 0.589697 0 0 0
174 1 1 0.000000 35.137499 39.959133 37.872651 0 0 0
175 1 1 0.000000 9.043271 1.910930 1.810120 0 0 0
176 1 1 0.000000 36.866438 14.072680 37.856598 0 0 0
177 1 1 0.000000 42.744017 33.640549 38.382918 0 0 0
178 1 1 0.000000 1.396800 4.761688 20.273776 0 1 0
179 1 1 0.000000 46.626270 43.793081 28.240264 0 0 0
180 1 1 0.000000 17.233883 25.445147 25.635954 0 0 0
181 1 1 0.000000 41.558671 2.526523 9.526409 0 0 0
182 1 1 0.000000 45.588017 20.766524 12.077400 0 0 0
183 1 1 0.000000 22.110918 41.346647 22.970176 0 0 0
184 1 1 0.000000 11.096978 39.400730 32.615012 0 0 0
185 1 1 0.000000 1.623606 5.150719 47.558496 0 0 0
186 1 1 0.000000 42.290862 13.342104 7.697633 0 0 0
187 1 1 0.000000 44.656399 21.777708 2.164053 0 0 1

Bonds

1 1 59 150
2 1 72 163
3 1 6 151
4 1 161 170
5 1 78 115
6 1 98 140
7 1 120 178
8 1 42 89
9 1 110 138
10 1 53 133
11 1 46 109
12 1 110 153
13 1 44 120
14 1 133 144
15 1 78 150
16 1 55 67
17 1 47 55
18 1 36 158
19 1 91 106
20 1 1 76
21 1 10 82
22 1 27 134
23 1 92 166
24 1 67 176
25 1 139 171
26 1 25 94
27 1 40 160
28 1 20 132
29 1 113 178
30 1 83 166
31 1 74 169
32 1 127 141
33 1 76 95
34 1 72 78
35 1 82 183
36 1 160 185
37 1 29 173
38 1 51 130
39 1 91 183
40 1 123 125
41 1 35 167
42 1 9 109
43 1 38 39
44 1 83 130
45 1 42 133
46 1 9 145
47 1 127 187
48 1 174 177
49 1 28 182
50 1 26 107
51 1 40 115
52 1 119 138
53 1 2 162
54 1 60 115
55 1 32 164
56 1 146 167
57 1 7 74
58 1 60 182
59 1 95 164
60 1 30 169
61 1 34 119
62 1 152 154
63 1 160 168
64 1 82 127
65 1 5 15
66 1 122 187
67 1 61 169
68 1 95 105
69 1 176 185
70 1 56 138
71 1 29 158
72 1 87 90
73 1 61 123
74 1 62 132
75 1 26 32
76 1 40 77
77 1 161 166
78 1 162 179
79 1 65 123
80 1 77 145
81 1 6 114
82 1 104 179
83 1 149 171
84 1 6 183
85 1 15 165
86 1 23 182
87 1 50 163
88 1 89 171
89 1 44 60
90 1 98 141
91 1 25 132
92 1 13 122
93 1 112 153
94 1 139 148
95 1 102 146
96 1 151 156
97 1 19 139
98 1 41 79
99 1 99 119
100 1 152 186
101 1 84 91
102 1 143 184
103 1 28 38
104 1 17 180
105 1 52 158
106 1 114 149
107 1 121 165
108 1 93 130
109 1 131 143
110 1 85 162
111 1 107 146
112 1 29 148
113 1 12 51
114 1 3 98
115 1 77 151
116 1 67 173
117 1 102 180
118 1 74 80
119 1 84 120
120 1 5 129
121 1 32 114
122 1 35 187
123 1 113 144
124 1 54 69
125 1 49 88
126 1 37 56
127 1 90 172
128 1 75 134
129 1 97 136
130 1 37 99
131 1 111 168
132 1 66 140
133 1 27 52
134 1 47 129
135 1 10 89
136 1 36 56
137 1 17 184
138 1 19 100
139 1 63 69
140 1 16 106
141 1 39 153
142 1 52 90
143 1 10 50
144 1 15 93
145 1 9 23
146 1 101 143
147 1 3 110
148 1 14 142
149 1 59 125
150 1 61 108
151 1 76 105
152 1 26 164
153 1 113 179
154 1 42 86
155 1 33 73
156 1 53 96
157 1 41 117
158 1 80 142
159 1 116 156
160 1 39 134
161 1 121 170
162 1 33 103
163 1 94 96
164 1 31 140
165 1 34 64
166 1 86 87
167 1 72 116
168 1 3 147
169 1 28 157
170 1 36 156
171 1 27 59
172 1 43 75
173 1 75 84
174 1 85 142
175 1 71 103
176 1 73 79
177 1 1 149
178 1 18 57
179 1 1 31
180 1 100 126
181 1 13 174
182 1 41 47
183 1 34 45
184 1 4 144
185 1 51 108
186 1 24 88
187 1 13 136
188 1 137 186
189 1 94 122
190 1 25 38
191 1 83 176
192 1 20 73
193 1 24 106
194 1 109 184
195 1 8 55
196 1 35 44
197 1 23 100
198 1 19 21
199 1 137 163
200 1 70 117
201 1 7 88
202 1 62 157
203 1 45 181
204 1 131 175
205 1 126 131
206 1 124 180
207 1 14 48
208 1 2 145
209 1 49 170
210 1 17 155
211 1 125 174
212 1 79 167
213 1 117 128
214 1 137 175
215 1 108 173
216 1 97 104
217 1 43 57
218 1 45 92
219 1 24 68
220 1 12 161
221 1 2 14
222 1 57 121
223 1 66 107
224 1 102 136
225 1 22 116
226 1 64 165
227 1 53 58
228 1 69 185
229 1 85 168
230 1 16 172
231 1 129 152
232 1 135 186
233 1 62 181
234 1 81 87
235 1 99 112
236 1 21 128
237 1 71 172
238 1 71 96
239 1 155 157
240 1 7 112
241 1 4 58
242 1 21 124
243 1 68 150
244 1 64 65
245 1 103 126
246 1 18 46
247 1 22 81
248 1 92 159
249 1 20 31
250 1 16 22
251 1 135 155
252 1 18 128
253 1 49 97
254 1 12 141
255 1 30 43
256 1 68 124
257 1 66 105
258 1 50 86
259 1 5 147
260 1 4 111
261 1 58 148
262 1 65 154
263 1 111 135
264 1 48 70
265 1 8 101
266 1 30 93

