Generated by ZY code

96 atoms
1 atom types
136 bonds
1 bond types
0 angles
0 angle types
0 dihedrals
0 dihedral types
0 impropers
0 improper types

0.0000000000000000 40.0000000000000000 xlo xhi
0.0000000000000000 40.0000000000000000 ylo yhi
0.0000000000000000 40.0000000000000000 zlo zhi

Masses

1 1.000

Atoms # full

1 1 1 0.000000 30.950520 15.124409 13.736239 0 0 0
2 1 1 0.000000 30.231332 9.015961 29.099674 0 0 0
3 1 1 0.000000 12.537194 39.116804 14.209203 0 0 0
4 1 1 0.000000 5.319817 26.051841 31.001880 0 0 0
5 1 1 0.000000 28.174282 17.857883 4.901727 0 0 0
6 1 1 0.000000 14.090737 10.804719 11.187673 0 0 0
7 1 1 0.000000 18.277807 22.661745 12.745761 0 0 0
8 1 1 0.000000 15.426829 1.014577 7.542077 0 0 0
9 1 1 0.000000 10.987330 39.841464 21.711748 0 0 0
10 1 1 0.000000 0.349434 6.329338 15.700898 1 0 0
11 1 1 0.000000 10.867999 26.801442 22.964045 0 0 0
12 1 1 0.000000 3.889216 29.030473 6.312780 0 0 0
13 1 1 0.000000 23.490112 30.939243 31.919155 0 0 0
14 1 1 0.000000 2.963026 19.565419 11.962068 0 0 0
15 1 1 0.000000 26.892597 38.893065 39.823548 0 0 0
16 1 1 0.000000 33.240281 28.868062 4.169080 0 0 0
17 1 1 0.000000 4.122427 1.731496 19.640093 0 0 0
18 1 1 0.000000 34.534160 30.819607 21.645335 0 0 0
19 1 1 0.000000 4.874132 4.078022 2.362219 0 0 0
20 1 1 0.000000 8.832806 31.926699 36.003125 0 0 0
21 1 1 0.000000 20.034761 15.942610 7.704593 0 0 0
22 1 1 0.000000 25.737527 0.209399 27.685976 1 0 0
23 1 1 0.000000 39.498341 36.673822 22.635105 0 -1 0
24 1 1 0.000000 3.312620 17.399107 29.201860 0 0 0
25 1 1 0.000000 31.543907 26.200377 29.235309 0 0 0
26 1 1 0.000000 11.254299 20.786676 37.235456 0 0 0
27 1 1 0.000000 16.037520 10.406677 4.089517 0 0 0
28 1 1 0.000000 38.401085 21.796308 19.796856 0 0 0
29 1 1 0.000000 16.618097 10.015421 36.757405 0 0 0
30 1 1 0.000000 30.310985 4.311786 23.333065 0 0 0
31 1 1 0.000000 36.897934 26.883043 34.364897 0 0 0
32 1 1 0.000000 21.645502 10.218736 12.934940 0 0 0
33 1 1 0.000000 10.799547 5.474334 38.032617 0 0 0
34 1 1 0.000000 30.249197 21.675280 35.886332 0 0 0
35 1 1 0.000000 37.669108 8.762842 37.284973 0 0 0
36 1 1 0.000000 15.382642 30.057721 39.722413 0 0 -1
37 1 1 0.000000 22.467855 2.430660 9.169265 0 0 0
38 1 1 0.000000 33.484674 6.983627 17.471384 0 0 0
39 1 1 0.000000 36.710304 20.500329 27.727992 0 0 0
40 1 1 0.000000 32.547182 3.802351 38.988136 0 0 0
41 1 1 0.000000 8.554779 11.027095 4.833571 0 0 0
42 1 1 0.000000 38.557547 0.756927 5.208089 0 0 0
43 1 1 0.000000 2.666089 28.882247 38.344132 0 0 0
44 1 1 0.000000 35.292958 16.915117 7.698397 0 0 0
45 1 1 0.000000 31.004666 37.296649 21.569996 0 0 0
46 1 1 0.000000 39.094857 19.482276 34.982201 0 0 0
47 1 1 0.000000 4.622700 8.090053 35.352115 0 0 0
48 1 1 0.000000 17.012506 19.019599 32.873136 0 0 0
49 1 1 0.000000 22.782997 28.690980 14.547424 0 0 0
50 1 1 0.000000 2.733436 35.145147 15.287322 0 0 0
51 1 1 0.000000 7.037153 11.147370 26.743157 0 0 0
52 1 1 0.000000 28.610557 8.873094 10.395496 0 0 0
53 1 1 0.000000 1.369484 39.239793 34.321588 0 0 0
54 1 1 0.000000 14.488201 39.671291 0.466502 -1 0 1
55 1 1 0.000000 26.305804 30.451521 7.866300 0 0 0
56 1 1 0.000000 31.604646 2.836295 6.857113 0 0 0
57 1 1 0.000000 1.944417 6.464399 8.623537 0 0 0
58 1 1 0.000000 9.769458 16.870198 11.788776 0 0 0
59 1 1 0.000000 28.375978 1.820116 13.757445 0 0 0
60 1 1 0.000000 23.728554 8.008558 23.429610 0 0 0
61 1 1 0.000000 1.935462 13.859369 6.469626 0 0 0
62 1 1 0.000000 16.982935 15.684238 15.787844 0 0 0
63 1 1 0.000000 4.997853 11.516247 13.211249 0 0 0
64 1 1 0.000000 18.317353 2.104856 26.428174 0 0 0
65 1 1 0.000000 25.717527 21.202234 28.136567 0 0 0
66 1 1 0.000000 19.999985 34.894529 26.819979 0 0 0
67 1 1 0.000000 13.243271 19.248566 5.744719 0 0 0
68 1 1 0.000000 19.570846 28.936504 22.072975 0 0 0
69 1 1 0.000000 36.953202 23.693052 10.585907 0 0 0
70 1 1 0.000000 9.019873 5.473925 10.988258 0 0 0
71 1 1 0.000000 35.394793 9.493195 7.085155 0 0 0
72 1 1 0.000000 26.353434 27.080502 0.640758 0 0 0
73 1 1 0.000000 39.265834 27.858927 26.673251 0 0 0
74 1 1 0.000000 2.446224 20.085995 2.006694 0 0 0
75 1 1 0.000000 18.513065 19.840535 25.625828 0 0 0
76 1 1 0.000000 10.446682 16.969157 30.615332 0 0 0
77 1 1 0.000000 21.131440 7.704978 30.901233 0 0 0
78 1 1 0.000000 7.215211 14.627768 37.823497 0 0 0
79 1 1 0.000000 13.074354 2.868578 31.528134 0 0 0
80 1 1 0.000000 9.746151 25.531828 2.542048 0 0 0
81 1 1 0.000000 11.297562 25.497068 10.097749 0 0 0
82 1 1 0.000000 19.427820 36.873277 19.719228 0 0 0
83 1 1 0.000000 24.069343 14.346452 38.786736 0 0 0
84 1 1 0.000000 32.931834 37.282718 30.935247 0 0 0
85 1 1 0.000000 14.719748 35.870242 33.968371 0 0 0
86 1 1 0.000000 4.211548 16.118694 19.269893 0 0 0
87 1 1 0.000000 24.186332 16.987387 17.687008 0 0 0
88 1 1 0.000000 34.733497 18.941317 0.816693 0 0 0
89 1 1 0.000000 14.677283 10.186028 25.275173 0 0 0
90 1 1 0.000000 13.039265 20.449720 19.663520 0 0 0
91 1 1 0.000000 17.423942 29.823151 7.152441 0 0 0
92 1 1 0.000000 23.134464 21.784495 35.389977 0 0 0
93 1 1 0.000000 38.149484 13.961413 14.573292 0 0 0
94 1 1 0.000000 9.691763 9.568446 18.779782 0 0 0
95 1 1 0.000000 21.330664 35.849822 12.652482 0 0 0
96 1 1 0.000000 18.285060 20.245561 0.600906 0 0 1

Bonds

1 1 32 58
2 1 20 25
3 1 24 32
4 1 20 85
5 1 21 81
6 1 65 83
7 1 49 91
8 1 23 53
9 1 28 84
10 1 39 80
11 1 6 17
12 1 12 74
13 1 88 96
14 1 29 49
15 1 74 76
16 1 19 89
17 1 65 90
18 1 1 47
19 1 13 83
20 1 58 88
21 1 15 49
22 1 33 69
23 1 84 92
24 1 6 22
25 1 53 71
26 1 26 86
27 1 56 84
28 1 20 33
29 1 36 41
30 1 18 22
31 1 45 52
32 1 28 58
33 1 48 75
34 1 24 47
35 1 34 46
36 1 50 96
37 1 50 77
38 1 40 74
39 1 32 76
40 1 47 89
41 1 3 17
42 1 38 51
43 1 22 53
44 1 14 43
45 1 33 80
46 1 57 90
47 1 34 73
48 1 24 51
49 1 4 23
50 1 37 50
51 1 26 35
52 1 8 18
53 1 13 59
54 1 13 16
55 1 15 54
56 1 62 94
57 1 25 93
58 1 11 69
59 1 35 87
60 1 27 71
61 1 18 55
62 1 9 86
63 1 60 83
64 1 11 14
65 1 21 70
66 1 12 68
67 1 56 69
68 1 9 23
69 1 48 68
70 1 60 80
71 1 66 79
72 1 57 71
73 1 63 67
74 1 35 61
75 1 31 36
76 1 37 43
77 1 28 44
78 1 89 94
79 1 39 46
80 1 31 81
81 1 52 68
82 1 51 77
83 1 16 72
84 1 10 88
85 1 19 78
86 1 70 79
87 1 40 94
88 1 27 93
89 1 4 54
90 1 19 66
91 1 44 60
92 1 25 75
93 1 76 77
94 1 39 65
95 1 11 46
96 1 52 63
97 1 75 86
98 1 21 90
99 1 26 78
100 1 8 78
101 1 7 9
102 1 95 96
103 1 91 95
104 1 45 87
105 1 14 40
106 1 8 10
107 1 44 61
108 1 73 87
109 1 34 48
110 1 6 93
111 1 2 30
112 1 12 59
113 1 43 45
114 1 37 91
115 1 54 79
116 1 38 59
117 1 42 82
118 1 70 82
119 1 61 72
120 1 5 41
121 1 67 92
122 1 5 42
123 1 41 73
124 1 3 81
125 1 5 62
126 1 55 63
127 1 15 16
128 1 38 42
129 1 17 57
130 1 4 62
131 1 92 95
132 1 31 55
133 1 66 72
134 1 64 85
135 1 64 67
136 1 36 56

