Generated by ZY

96 atoms
1 atom types
136 bonds
1 bond types

0.0000000000000000 40.0000000000000000 xlo xhi
0.0000000000000000 40.0000000000000000 ylo yhi
0.0000000000000000 40.0000000000000000 zlo zhi

Masses

1 1.000

Atoms # full

1 1 1 0.000000 35.914652 30.199933 31.812479 0 0 0
2 1 1 0.000000 8.670901 33.144980 0.505292 0 0 1
3 1 1 0.000000 4.044356 27.844947 5.333519 0 0 1
4 1 1 0.000000 20.589164 33.286749 12.077805 0 0 0
5 1 1 0.000000 37.331760 19.256142 17.364634 0 0 0
6 1 1 0.000000 17.111933 30.301770 36.774574 0 0 0
7 1 1 0.000000 12.232116 1.023916 36.757044 0 0 -1
8 1 1 0.000000 5.545047 5.762713 0.529883 0 0 0
9 1 1 0.000000 21.145026 20.088157 39.119474 0 0 0
10 1 1 0.000000 27.595794 31.740866 35.519478 0 0 0
11 1 1 0.000000 2.427331 12.258250 15.553750 0 0 0
12 1 1 0.000000 0.692130 26.407941 24.848504 0 0 0
13 1 1 0.000000 26.134397 19.336671 6.723364 0 0 0
14 1 1 0.000000 6.577512 19.863648 2.409775 0 0 0
15 1 1 0.000000 7.881623 9.805156 21.363241 0 0 0
16 1 1 0.000000 10.431003 32.967082 10.580258 0 0 0
17 1 1 0.000000 28.589398 12.809288 0.601074 0 0 1
18 1 1 0.000000 0.732269 28.229016 14.462849 -1 0 0
19 1 1 0.000000 25.521941 34.821655 18.600861 0 0 0
20 1 1 0.000000 18.647338 16.298939 31.320785 0 0 0
21 1 1 0.000000 33.108202 27.014190 18.507218 0 -1 0
22 1 1 0.000000 33.093351 38.614589 37.721036 0 0 0
23 1 1 0.000000 30.556078 12.922228 10.610791 0 0 0
24 1 1 0.000000 3.567483 20.029862 32.145327 0 0 0
25 1 1 0.000000 21.972743 38.805389 35.784147 -1 0 0
26 1 1 0.000000 21.955264 11.199062 8.357027 0 0 0
27 1 1 0.000000 19.864953 35.042936 26.333160 0 0 0
28 1 1 0.000000 11.795236 34.127019 30.353049 0 0 0
29 1 1 0.000000 27.309240 27.361673 11.884437 0 0 0
30 1 1 0.000000 35.024920 3.961160 28.349159 0 0 0
31 1 1 0.000000 10.841187 0.979077 24.448444 1 0 0
32 1 1 0.000000 4.067163 28.231918 35.189426 0 0 0
33 1 1 0.000000 34.918280 4.148057 5.289827 1 0 0
34 1 1 0.000000 18.964085 1.989195 10.007563 0 0 0
35 1 1 0.000000 15.838708 6.471320 2.574715 0 0 0
36 1 1 0.000000 25.055415 10.491789 16.992060 0 0 0
37 1 1 0.000000 14.944909 31.780186 19.155043 0 0 0
38 1 1 0.000000 21.471014 18.428620 14.112153 0 0 0
39 1 1 0.000000 8.168226 25.214262 18.191921 0 0 0
40 1 1 0.000000 24.919652 20.407409 26.254328 0 0 0
41 1 1 0.000000 22.632751 3.466837 27.376704 0 0 0
42 1 1 0.000000 26.473491 11.836518 27.026430 0 0 0
43 1 1 0.000000 28.530163 5.923869 34.009334 0 0 0
44 1 1 0.000000 36.714740 31.134230 0.113878 0 0 1
45 1 1 0.000000 6.264303 33.897922 20.722091 0 0 0
46 1 1 0.000000 35.873936 22.283677 9.020841 0 0 0
47 1 1 0.000000 34.553338 11.939419 20.515525 0 0 0
48 1 1 0.000000 25.994371 3.591847 2.624640 1 0 0
49 1 1 0.000000 28.944589 21.779888 34.123110 0 0 0
50 1 1 0.000000 15.746055 25.248607 12.876963 0 0 0
51 1 1 0.000000 17.264902 11.676082 21.188886 0 0 0
52 1 1 0.000000 13.786800 8.892955 12.772478 0 0 0
53 1 1 0.000000 1.676156 36.658173 27.267902 0 0 0
54 1 1 0.000000 1.766498 37.610535 14.574113 0 0 0
55 1 1 0.000000 11.309968 17.090463 15.351977 0 0 0
56 1 1 0.000000 6.984062 12.210402 6.786515 0 0 0
57 1 1 0.000000 4.382790 4.903860 10.779759 0 1 0
58 1 1 0.000000 20.982232 9.694691 35.521427 0 0 0
59 1 1 0.000000 27.945715 0.243591 11.982242 0 0 0
60 1 1 0.000000 35.678602 5.144175 14.546874 0 0 0
61 1 1 0.000000 28.689033 35.491141 4.984890 0 0 1
62 1 1 0.000000 34.310863 19.859655 26.092829 0 0 0
63 1 1 0.000000 4.768527 18.814270 22.877559 0 0 0
64 1 1 0.000000 29.224828 3.489198 20.658255 0 0 0
65 1 1 0.000000 1.185658 3.657477 21.744548 0 0 0
66 1 1 0.000000 3.281034 13.663695 37.806234 0 1 0
67 1 1 0.000000 30.108797 25.794309 2.523516 0 0 0
68 1 1 0.000000 34.307216 34.211921 12.211382 0 0 0
69 1 1 0.000000 37.049199 6.585715 37.417964 0 0 0
70 1 1 0.000000 14.593251 17.246957 6.725422 0 0 0
71 1 1 0.000000 19.650309 2.024594 19.162438 0 0 0
72 1 1 0.000000 17.635374 36.209792 3.395164 0 0 0
73 1 1 0.000000 28.272084 28.720916 26.787319 0 0 0
74 1 1 0.000000 16.061453 21.214074 22.825256 0 0 0
75 1 1 0.000000 10.482637 16.071648 28.571338 0 0 0
76 1 1 0.000000 38.435155 22.337122 39.185236 0 0 0
77 1 1 0.000000 29.521600 37.036793 28.452273 0 0 0
78 1 1 0.000000 14.001005 8.018736 29.072208 0 0 0
79 1 1 0.000000 1.998761 38.349923 35.444011 0 0 -1
80 1 1 0.000000 34.878463 15.083129 33.953575 0 0 0
81 1 1 0.000000 19.063541 25.713088 29.962820 0 0 0
82 1 1 0.000000 21.800895 27.158177 5.467159 0 0 1
83 1 1 0.000000 11.409650 0.693068 16.008588 0 0 0
84 1 1 0.000000 12.913511 21.822208 35.040748 0 0 0
85 1 1 0.000000 37.187926 12.946240 4.634796 0 0 0
86 1 1 0.000000 0.351263 11.963229 27.457449 0 0 0
87 1 1 0.000000 10.826615 0.575531 6.391541 0 0 0
88 1 1 0.000000 2.444525 37.817611 5.285781 -1 1 0
89 1 1 0.000000 4.288077 20.844976 11.078018 0 0 0
90 1 1 0.000000 11.860933 12.822540 37.262892 0 0 0
91 1 1 0.000000 12.974013 25.788157 4.727401 0 0 0
92 1 1 0.000000 28.448266 18.823014 18.843117 0 0 0
93 1 1 0.000000 9.849654 26.319938 26.735550 0 0 0
94 1 1 0.000000 22.556802 26.302940 19.199166 0 0 0
95 1 1 0.000000 34.926034 34.909044 20.834361 0 -1 0
96 1 1 0.000000 4.894404 4.754910 30.629917 0 0 0

Bonds

1 1 28 79
2 1 22 90
3 1 18 44
4 1 20 94
5 1 65 74
6 1 45 96
7 1 22 67
8 1 5 62
9 1 40 82
10 1 32 84
11 1 10 43
12 1 25 84
13 1 12 67
14 1 32 89
15 1 52 83
16 1 59 70
17 1 22 66
18 1 30 86
19 1 44 65
20 1 3 37
21 1 11 42
22 1 4 33
23 1 27 73
24 1 11 59
25 1 13 32
26 1 12 33
27 1 2 23
28 1 34 64
29 1 74 77
30 1 63 86
31 1 1 76
32 1 30 73
33 1 18 96
34 1 17 46
35 1 3 14
36 1 44 50
37 1 4 16
38 1 19 70
39 1 7 28
40 1 56 91
41 1 17 57
42 1 20 40
43 1 8 80
44 1 11 60
45 1 37 77
46 1 12 34
47 1 7 73
48 1 24 41
49 1 51 56
50 1 39 70
51 1 41 59
52 1 17 40
53 1 15 31
54 1 67 69
55 1 30 31
56 1 50 56
57 1 27 39
58 1 34 55
59 1 35 90
60 1 35 61
61 1 33 94
62 1 58 82
63 1 31 71
64 1 38 45
65 1 38 69
66 1 24 35
67 1 45 89
68 1 3 82
69 1 36 52
70 1 43 90
71 1 14 57
72 1 9 84
73 1 25 26
74 1 28 61
75 1 10 95
76 1 41 68
77 1 13 55
78 1 27 69
79 1 58 80
80 1 25 72
81 1 79 88
82 1 14 50
83 1 2 15
84 1 89 93
85 1 36 51
86 1 8 91
87 1 24 86
88 1 18 38
89 1 43 87
90 1 10 49
91 1 39 55
92 1 46 80
93 1 52 72
94 1 4 54
95 1 71 74
96 1 54 85
97 1 2 61
98 1 60 95
99 1 20 77
100 1 19 79
101 1 49 78
102 1 6 58
103 1 60 85
104 1 1 91
105 1 6 29
106 1 15 94
107 1 8 92
108 1 71 78
109 1 23 46
110 1 6 13
111 1 63 93
112 1 63 68
113 1 48 76
114 1 19 64
115 1 26 36
116 1 57 87
117 1 37 75
118 1 23 64
119 1 42 62
120 1 1 42
121 1 92 93
122 1 83 87
123 1 29 49
124 1 54 83
125 1 75 81
126 1 76 95
127 1 29 47
128 1 7 96
129 1 5 85
130 1 62 81
131 1 48 53
132 1 5 53
133 1 16 88
134 1 66 75
135 1 16 72
136 1 51 65

