Generated by ZY code

96 atoms
1 atom types
136 bonds
1 bond types
0 angles
0 angle types
0 dihedrals
0 dihedral types
0 impropers
0 improper types

0.0000000000000000 40.0000000000000000 xlo xhi
0.0000000000000000 40.0000000000000000 ylo yhi
0.0000000000000000 40.0000000000000000 zlo zhi

Masses

1 1.000

Atoms # full

1 1 1 0.000000 25.631965 16.413574 27.624821 0 0 0
2 1 1 0.000000 14.432726 10.341985 10.586289 0 0 0
3 1 1 0.000000 19.481565 26.308260 35.128377 0 0 0
4 1 1 0.000000 32.562753 24.235846 16.003450 0 0 0
5 1 1 0.000000 14.016574 0.978277 30.464056 0 0 0
6 1 1 0.000000 17.351326 13.838695 0.682099 0 0 0
7 1 1 0.000000 21.940695 16.397827 34.720139 0 0 0
8 1 1 0.000000 29.604535 31.630402 14.553900 0 0 0
9 1 1 0.000000 4.835454 15.813172 16.234086 0 0 0
10 1 1 0.000000 16.903465 21.941818 25.222749 0 0 0
11 1 1 0.000000 32.856477 38.516116 11.150710 -1 0 0
12 1 1 0.000000 7.915210 7.962945 15.416500 0 0 0
13 1 1 0.000000 25.547727 9.411929 23.977979 0 0 0
14 1 1 0.000000 22.714168 32.095246 38.839448 0 0 -1
15 1 1 0.000000 12.021008 23.175921 31.621394 0 0 0
16 1 1 0.000000 18.737809 8.366158 18.645507 0 0 0
17 1 1 0.000000 20.563008 15.596272 14.032320 0 0 0
18 1 1 0.000000 31.693579 13.304344 20.977373 0 0 0
19 1 1 0.000000 1.646575 33.225234 21.898601 0 0 0
20 1 1 0.000000 39.803076 35.828416 9.729477 0 0 0
21 1 1 0.000000 11.479425 31.903052 5.607696 0 0 0
22 1 1 0.000000 21.312612 39.976745 34.866230 -1 0 0
23 1 1 0.000000 20.470722 26.916504 7.686570 0 0 0
24 1 1 0.000000 6.433544 28.847096 33.700007 0 0 0
25 1 1 0.000000 23.451756 24.069253 28.890266 0 0 0
26 1 1 0.000000 11.418342 15.893446 35.221641 0 0 0
27 1 1 0.000000 13.643316 15.032582 18.068014 0 0 0
28 1 1 0.000000 15.267119 37.037474 10.654046 0 0 0
29 1 1 0.000000 13.335880 2.555085 22.762766 0 0 0
30 1 1 0.000000 13.181971 8.050774 2.958885 0 0 0
31 1 1 0.000000 1.129532 33.169918 39.021959 0 0 0
32 1 1 0.000000 21.369794 7.179961 38.989639 0 0 0
33 1 1 0.000000 17.226954 36.865680 18.745616 0 0 0
34 1 1 0.000000 14.368237 22.108552 6.232019 0 0 0
35 1 1 0.000000 28.888186 4.519510 3.656188 0 0 0
36 1 1 0.000000 13.723471 34.136824 37.566553 0 0 -1
37 1 1 0.000000 33.414232 5.415073 24.342345 0 0 0
38 1 1 0.000000 24.241907 22.521510 1.848349 0 0 0
39 1 1 0.000000 28.409503 22.182117 34.937715 0 0 0
40 1 1 0.000000 30.066610 33.957816 36.778606 0 0 0
41 1 1 0.000000 8.277066 33.818436 26.863226 0 0 0
42 1 1 0.000000 38.858212 16.534383 21.202687 0 -1 0
43 1 1 0.000000 7.399120 36.122745 11.301694 0 0 0
44 1 1 0.000000 37.991568 2.647430 4.886305 0 0 0
45 1 1 0.000000 6.388925 16.001265 24.825269 0 0 0
46 1 1 0.000000 35.399629 24.875954 32.260611 0 0 0
47 1 1 0.000000 4.097911 15.124344 38.407689 0 0 0
48 1 1 0.000000 34.407205 9.161026 8.686857 0 0 0
49 1 1 0.000000 22.356437 16.052213 6.261481 0 0 0
50 1 1 0.000000 5.200478 29.285903 15.667126 0 0 0
51 1 1 0.000000 20.659495 35.206433 5.435584 0 0 0
52 1 1 0.000000 3.291756 30.030714 5.922114 0 0 0
53 1 1 0.000000 15.844756 20.917759 38.879582 0 0 0
54 1 1 0.000000 34.022185 35.257060 3.669914 0 0 0
55 1 1 0.000000 30.756468 10.010140 36.729432 0 0 0
56 1 1 0.000000 14.484217 0.637335 1.297855 1 0 0
57 1 1 0.000000 20.118259 3.063807 6.080351 0 0 0
58 1 1 0.000000 24.485073 8.800222 31.829153 0 0 0
59 1 1 0.000000 17.342975 9.076791 26.802305 0 0 0
60 1 1 0.000000 28.350596 4.442642 11.967236 0 0 0
61 1 1 0.000000 22.609850 2.163335 22.866314 0 0 0
62 1 1 0.000000 28.960555 36.643679 23.077234 0 0 0
63 1 1 0.000000 22.422129 34.002089 13.199131 0 0 0
64 1 1 0.000000 13.938182 3.287910 14.828208 0 0 0
65 1 1 0.000000 29.746773 22.428143 23.955128 0 0 0
66 1 1 0.000000 35.616456 18.367272 5.764159 0 0 0
67 1 1 0.000000 1.402011 9.542895 11.861563 0 0 0
68 1 1 0.000000 2.214980 7.115049 29.522522 0 0 0
69 1 1 0.000000 9.041457 35.883499 19.119447 0 0 0
70 1 1 0.000000 34.008398 16.437322 28.234461 0 0 0
71 1 1 0.000000 8.540921 8.621084 22.951471 0 0 0
72 1 1 0.000000 11.383768 27.011541 39.279467 0 0 0
73 1 1 0.000000 37.904468 25.316783 22.069780 0 -1 0
74 1 1 0.000000 25.449926 28.942366 21.243314 0 0 0
75 1 1 0.000000 37.238150 31.106757 15.697834 0 0 0
76 1 1 0.000000 3.296216 21.365508 4.636870 0 0 0
77 1 1 0.000000 22.193587 8.769388 10.647639 0 0 0
78 1 1 0.000000 2.810543 1.210009 16.020254 1 0 0
79 1 1 0.000000 0.808865 33.815535 30.879776 0 0 0
80 1 1 0.000000 10.376552 17.912237 11.298091 0 0 0
81 1 1 0.000000 14.451258 7.722773 35.000510 0 0 0
82 1 1 0.000000 6.000379 0.152258 31.453556 1 0 0
83 1 1 0.000000 8.271627 25.422463 9.734149 0 0 0
84 1 1 0.000000 1.008853 20.137144 28.774338 0 0 0
85 1 1 0.000000 4.253046 26.931370 26.471264 0 0 0
86 1 1 0.000000 26.877722 18.968156 17.098012 0 0 0
87 1 1 0.000000 1.893649 22.896846 36.729346 0 0 0
88 1 1 0.000000 14.873582 29.320427 13.650525 0 0 0
89 1 1 0.000000 28.867481 12.178439 13.571623 0 0 0
90 1 1 0.000000 9.737952 2.958671 7.740213 1 0 0
91 1 1 0.000000 9.635289 22.878389 22.413112 0 0 0
92 1 1 0.000000 14.845962 30.586797 23.355161 0 0 0
93 1 1 0.000000 32.860971 1.993441 36.878017 0 0 0
94 1 1 0.000000 0.764775 8.362818 20.750955 0 0 0
95 1 1 0.000000 35.985600 16.000196 37.768258 0 0 0
96 1 1 0.000000 9.321064 10.740462 30.123866 0 0 0

Bonds

1 1 15 34
2 1 35 53
3 1 45 81
4 1 79 81
5 1 3 40
6 1 2 68
7 1 23 43
8 1 68 86
9 1 19 31
10 1 38 83
11 1 39 89
12 1 3 60
13 1 62 95
14 1 30 40
15 1 16 58
16 1 14 64
17 1 36 67
18 1 20 71
19 1 39 60
20 1 74 82
21 1 12 63
22 1 12 88
23 1 43 56
24 1 44 94
25 1 19 79
26 1 8 13
27 1 17 41
28 1 57 63
29 1 10 42
30 1 58 61
31 1 46 96
32 1 68 70
33 1 55 82
34 1 51 52
35 1 27 41
36 1 43 69
37 1 39 75
38 1 62 93
39 1 42 53
40 1 20 60
41 1 34 87
42 1 24 58
43 1 38 81
44 1 1 27
45 1 31 87
46 1 10 80
47 1 22 82
48 1 3 25
49 1 15 63
50 1 44 54
51 1 27 28
52 1 25 86
53 1 26 96
54 1 75 88
55 1 37 61
56 1 32 85
57 1 22 26
58 1 61 64
59 1 13 77
60 1 20 74
61 1 18 83
62 1 7 26
63 1 74 96
64 1 12 90
65 1 38 54
66 1 14 31
67 1 44 85
68 1 6 85
69 1 19 94
70 1 1 73
71 1 35 67
72 1 13 62
73 1 33 91
74 1 73 83
75 1 42 77
76 1 67 91
77 1 49 92
78 1 76 88
79 1 5 80
80 1 59 80
81 1 41 56
82 1 51 56
83 1 18 86
84 1 49 91
85 1 32 49
86 1 70 95
87 1 78 90
88 1 9 71
89 1 4 57
90 1 14 51
91 1 7 71
92 1 34 40
93 1 11 23
94 1 1 15
95 1 25 54
96 1 70 75
97 1 69 73
98 1 46 50
99 1 9 22
100 1 69 84
101 1 11 52
102 1 46 90
103 1 18 84
104 1 76 95
105 1 2 78
106 1 24 84
107 1 50 78
108 1 37 94
109 1 45 47
110 1 32 59
111 1 35 66
112 1 28 77
113 1 17 48
114 1 2 10
115 1 5 57
116 1 29 64
117 1 36 87
118 1 17 76
119 1 5 33
120 1 45 89
121 1 33 50
122 1 7 47
123 1 30 53
124 1 28 55
125 1 47 52
126 1 23 66
127 1 24 72
128 1 29 48
129 1 9 30
130 1 79 92
131 1 59 72
132 1 37 66
133 1 4 72
134 1 48 89
135 1 8 93
136 1 11 65

