Generated by ZY

96 atoms
1 atom types
136 bonds
1 bond types

0.0000000000000000 40.0000000000000000 xlo xhi
0.0000000000000000 40.0000000000000000 ylo yhi
0.0000000000000000 40.0000000000000000 zlo zhi

Masses

1 1.000

Atoms # full

1 1 1 0.000000 7.825793 18.445078 8.754626 0 0 0
2 1 1 0.000000 11.895373 15.737554 1.722154 0 0 0
3 1 1 0.000000 30.632952 37.566694 20.584757 0 0 0
4 1 1 0.000000 37.577714 28.015201 22.084005 0 0 0
5 1 1 0.000000 27.825983 9.728917 21.360765 0 0 0
6 1 1 0.000000 23.490015 4.322006 2.101124 0 0 0
7 1 1 0.000000 32.190922 34.461143 38.818912 0 0 0
8 1 1 0.000000 4.513793 28.173916 10.561596 0 0 0
9 1 1 0.000000 31.722227 18.918347 11.743861 0 0 0
10 1 1 0.000000 38.694012 19.753506 18.105908 0 0 0
11 1 1 0.000000 26.682262 14.168624 27.084433 0 0 0
12 1 1 0.000000 3.744128 31.827987 25.315249 0 0 0
13 1 1 0.000000 27.126348 15.167589 4.681779 0 0 0
14 1 1 0.000000 36.315984 31.682312 4.011400 0 0 0
15 1 1 0.000000 24.111489 26.336536 14.347010 0 0 0
16 1 1 0.000000 23.226586 36.420802 18.139785 0 0 0
17 1 1 0.000000 31.482500 28.939456 34.020766 0 0 -1
18 1 1 0.000000 1.434911 24.910708 36.711162 0 0 0
19 1 1 0.000000 16.793283 7.532545 1.099664 0 0 0
20 1 1 0.000000 31.792285 18.884430 19.837393 0 0 0
21 1 1 0.000000 20.844369 4.980412 33.664785 0 0 0
22 1 1 0.000000 23.095488 3.426128 20.113775 0 0 0
23 1 1 0.000000 25.262139 25.776100 32.198602 0 0 0
24 1 1 0.000000 9.212770 3.724796 27.717473 0 0 0
25 1 1 0.000000 16.502061 32.785643 13.766667 0 0 0
26 1 1 0.000000 6.402806 19.896872 38.901942 0 0 0
27 1 1 0.000000 13.329809 3.913055 34.088245 0 0 0
28 1 1 0.000000 12.749822 6.399493 12.932476 0 0 0
29 1 1 0.000000 10.411768 38.918406 7.493899 -1 0 0
30 1 1 0.000000 35.360225 10.610741 21.426209 0 0 0
31 1 1 0.000000 2.440665 6.711145 11.146342 0 0 0
32 1 1 0.000000 5.965249 24.235799 31.042311 0 0 0
33 1 1 0.000000 15.659848 29.573196 39.516697 0 0 0
34 1 1 0.000000 16.431707 0.058770 16.047554 1 0 0
35 1 1 0.000000 36.697122 35.085736 24.335970 0 0 0
36 1 1 0.000000 22.581006 28.326252 39.003944 0 0 0
37 1 1 0.000000 10.113575 28.554535 26.762078 0 0 0
38 1 1 0.000000 19.794913 37.962115 0.140736 0 0 0
39 1 1 0.000000 7.962276 12.267193 13.508492 0 0 0
40 1 1 0.000000 24.981789 21.749227 7.492864 0 0 0
41 1 1 0.000000 5.057445 9.602414 23.212754 0 0 0
42 1 1 0.000000 25.925792 7.777201 14.572632 0 0 0
43 1 1 0.000000 5.227100 31.469218 36.562895 0 0 0
44 1 1 0.000000 38.270220 23.353891 29.997092 0 0 0
45 1 1 0.000000 16.664923 25.588045 14.382116 0 0 0
46 1 1 0.000000 33.996307 16.044552 28.323040 0 0 0
47 1 1 0.000000 21.754797 33.530837 5.367507 0 0 0
48 1 1 0.000000 0.133824 12.344493 6.823986 0 1 0
49 1 1 0.000000 15.630336 24.278981 28.572364 0 0 0
50 1 1 0.000000 17.003633 34.121358 20.946431 0 0 0
51 1 1 0.000000 9.090364 24.575953 4.909587 0 0 0
52 1 1 0.000000 18.987003 27.560212 23.214867 0 0 0
53 1 1 0.000000 11.292038 5.800559 5.387809 0 0 0
54 1 1 0.000000 19.005120 0.836946 7.846504 0 0 0
55 1 1 0.000000 18.545424 30.450379 32.293810 0 0 0
56 1 1 0.000000 33.104136 33.290673 10.358151 0 0 0
57 1 1 0.000000 26.350664 25.785427 21.780354 0 0 0
58 1 1 0.000000 19.674420 26.900392 7.654427 0 0 0
59 1 1 0.000000 8.951067 38.562409 16.789813 0 0 0
60 1 1 0.000000 37.392131 39.035586 6.808916 0 0 0
61 1 1 0.000000 7.494493 11.653050 6.099954 0 0 0
62 1 1 0.000000 14.333025 35.103192 27.331064 0 0 0
63 1 1 0.000000 28.224410 6.510365 7.672775 0 0 0
64 1 1 0.000000 32.309772 0.325549 12.892594 1 0 0
65 1 1 0.000000 6.292433 5.393318 17.240727 0 0 0
66 1 1 0.000000 25.286342 19.483149 16.496917 0 0 0
67 1 1 0.000000 2.400210 13.815743 17.860256 0 0 0
68 1 1 0.000000 29.022714 25.560211 0.850227 0 0 1
69 1 1 0.000000 37.074543 25.495798 14.047867 0 0 0
70 1 1 0.000000 14.650002 18.844801 33.301460 0 0 0
71 1 1 0.000000 39.284145 4.189599 20.405858 0 0 0
72 1 1 0.000000 3.967774 24.980399 18.943958 0 0 0
73 1 1 0.000000 0.466576 0.962257 0.476273 1 1 1
74 1 1 0.000000 34.120131 36.402796 31.501552 0 0 0
75 1 1 0.000000 35.765301 2.271171 27.258963 0 0 0
76 1 1 0.000000 38.729282 30.508292 31.360494 0 0 0
77 1 1 0.000000 31.020800 13.025236 34.821346 0 0 0
78 1 1 0.000000 11.190970 24.115496 21.140104 0 0 0
79 1 1 0.000000 7.265887 2.658709 0.299464 0 0 0
80 1 1 0.000000 38.364385 24.722827 3.214066 0 0 0
81 1 1 0.000000 24.376990 33.117750 11.954231 0 0 0
82 1 1 0.000000 27.380912 37.004701 27.528911 0 0 0
83 1 1 0.000000 13.041719 19.569702 15.563344 0 0 0
84 1 1 0.000000 39.181240 35.075267 36.909169 0 0 0
85 1 1 0.000000 28.572894 39.876870 35.567056 0 0 0
86 1 1 0.000000 38.699837 32.671255 15.439117 0 0 0
87 1 1 0.000000 8.368823 34.436721 31.038885 0 0 0
88 1 1 0.000000 11.448187 12.961105 30.332817 0 0 0
89 1 1 0.000000 9.327214 31.400824 2.352646 0 0 0
90 1 1 0.000000 12.625321 37.931264 39.808609 0 0 -1
91 1 1 0.000000 11.978850 25.558833 34.911609 0 0 0
92 1 1 0.000000 21.827815 20.231193 28.956620 0 0 0
93 1 1 0.000000 15.864191 12.864336 15.617412 0 0 0
94 1 1 0.000000 16.432863 7.634929 26.970990 0 0 0
95 1 1 0.000000 19.558061 14.441868 22.059138 0 0 0
96 1 1 0.000000 21.026280 14.840182 34.742555 0 0 0

Bonds

1 1 6 73
2 1 33 87
3 1 36 62
4 1 62 91
5 1 20 44
6 1 9 58
7 1 9 11
8 1 47 48
9 1 3 4
10 1 15 66
11 1 46 62
12 1 33 47
13 1 8 53
14 1 54 66
15 1 2 51
16 1 22 63
17 1 44 61
18 1 18 41
19 1 27 64
20 1 34 58
21 1 25 26
22 1 33 38
23 1 28 29
24 1 14 67
25 1 12 74
26 1 35 95
27 1 24 74
28 1 3 5
29 1 84 89
30 1 24 34
31 1 55 66
32 1 57 74
33 1 39 41
34 1 37 86
35 1 45 87
36 1 29 67
37 1 63 91
38 1 16 45
39 1 44 78
40 1 1 39
41 1 28 95
42 1 29 45
43 1 70 90
44 1 2 6
45 1 18 26
46 1 80 84
47 1 37 64
48 1 17 60
49 1 4 91
50 1 53 71
51 1 15 34
52 1 25 52
53 1 76 86
54 1 71 89
55 1 21 78
56 1 14 78
57 1 10 16
58 1 42 81
59 1 4 95
60 1 30 87
61 1 31 94
62 1 11 90
63 1 55 71
64 1 60 84
65 1 56 72
66 1 15 28
67 1 49 79
68 1 80 81
69 1 51 89
70 1 11 21
71 1 7 64
72 1 26 48
73 1 9 55
74 1 10 48
75 1 22 88
76 1 27 93
77 1 83 88
78 1 16 57
79 1 1 12
80 1 51 92
81 1 59 69
82 1 3 82
83 1 32 43
84 1 12 49
85 1 13 52
86 1 14 53
87 1 13 17
88 1 27 47
89 1 31 83
90 1 2 13
91 1 21 68
92 1 1 41
93 1 40 49
94 1 72 90
95 1 43 77
96 1 68 79
97 1 50 81
98 1 60 82
99 1 31 72
100 1 30 65
101 1 6 63
102 1 68 73
103 1 5 76
104 1 43 73
105 1 46 57
106 1 20 50
107 1 19 61
108 1 10 76
109 1 37 38
110 1 42 70
111 1 8 69
112 1 5 32
113 1 30 56
114 1 61 93
115 1 7 65
116 1 88 94
117 1 52 93
118 1 19 24
119 1 39 56
120 1 18 94
121 1 77 96
122 1 36 96
123 1 58 83
124 1 59 67
125 1 7 36
126 1 8 70
127 1 65 86
128 1 40 54
129 1 38 82
130 1 20 42
131 1 40 80
132 1 32 59
133 1 69 92
134 1 46 77
135 1 25 85
136 1 22 75

