Generated by ZY code

96 atoms
1 atom types
136 bonds
1 bond types
0 angles
0 angle types
0 dihedrals
0 dihedral types
0 impropers
0 improper types

0.0000000000000000 40.0000000000000000 xlo xhi
0.0000000000000000 40.0000000000000000 ylo yhi
0.0000000000000000 40.0000000000000000 zlo zhi

Masses

1 1.000

Atoms # full

1 1 1 0.000000 35.481868 21.170151 36.269643 0 0 0
2 1 1 0.000000 25.726483 6.084755 31.040163 0 0 0
3 1 1 0.000000 2.677709 6.283108 9.910220 0 1 0
4 1 1 0.000000 39.572793 16.545385 1.153544 0 0 0
5 1 1 0.000000 16.647026 9.408934 6.575790 0 0 0
6 1 1 0.000000 26.207558 12.958593 15.630278 0 0 0
7 1 1 0.000000 33.942808 2.908424 33.545973 0 0 0
8 1 1 0.000000 26.094113 6.401021 11.787249 0 0 0
9 1 1 0.000000 19.566166 3.019193 11.502844 0 0 0
10 1 1 0.000000 37.346072 4.656939 4.337031 0 0 0
11 1 1 0.000000 7.685436 10.076372 30.028592 0 0 0
12 1 1 0.000000 10.525253 29.650485 28.133632 0 0 0
13 1 1 0.000000 14.976785 3.760647 28.756221 0 0 0
14 1 1 0.000000 10.389365 17.431579 22.506884 0 0 0
15 1 1 0.000000 34.997953 24.068859 28.061372 0 0 0
16 1 1 0.000000 2.811260 36.966588 33.817075 0 0 0
17 1 1 0.000000 33.109695 11.474461 12.137091 0 0 0
18 1 1 0.000000 31.988936 22.677234 13.503401 0 0 0
19 1 1 0.000000 39.571756 18.376272 11.200908 0 0 0
20 1 1 0.000000 3.671029 24.591454 28.519837 0 0 0
21 1 1 0.000000 10.513678 6.484410 1.169342 0 0 0
22 1 1 0.000000 2.836008 39.326269 4.894761 0 0 0
23 1 1 0.000000 31.047845 2.665472 7.849937 0 0 0
24 1 1 0.000000 0.054247 6.685502 20.404098 0 1 0
25 1 1 0.000000 15.930630 29.880104 11.653291 0 0 0
26 1 1 0.000000 5.697268 26.104847 2.286367 0 0 0
27 1 1 0.000000 23.924617 37.199261 37.655710 0 0 0
28 1 1 0.000000 38.897019 32.040911 9.216045 0 0 0
29 1 1 0.000000 12.740705 27.806033 4.976115 0 0 0
30 1 1 0.000000 30.354181 30.064070 29.241429 0 0 0
31 1 1 0.000000 36.185041 4.951704 12.853057 0 0 0
32 1 1 0.000000 16.334676 34.413626 29.940706 0 0 0
33 1 1 0.000000 27.082929 37.495763 11.337716 0 0 0
34 1 1 0.000000 23.665062 39.472234 4.823738 0 0 0
35 1 1 0.000000 23.698515 28.293398 33.839885 0 0 0
36 1 1 0.000000 18.460809 14.515531 20.419953 0 0 0
37 1 1 0.000000 29.034864 16.377821 8.524290 0 0 0
38 1 1 0.000000 6.529625 25.671879 15.002139 0 0 0
39 1 1 0.000000 24.182369 19.139051 0.140976 0 0 1
40 1 1 0.000000 3.301833 33.610713 17.622894 0 0 0
41 1 1 0.000000 15.271278 1.983481 5.364575 0 0 0
42 1 1 0.000000 29.978624 4.950029 17.992343 0 0 0
43 1 1 0.000000 33.577720 22.626156 20.779760 0 0 0
44 1 1 0.000000 24.107888 29.535422 13.793047 0 0 0
45 1 1 0.000000 29.633433 36.800041 24.433187 0 0 0
46 1 1 0.000000 38.708758 25.281348 4.862317 0 0 0
47 1 1 0.000000 35.083215 38.788330 16.576053 -1 0 0
48 1 1 0.000000 2.965984 22.041008 35.897273 0 0 0
49 1 1 0.000000 9.027871 11.412957 14.747740 0 0 0
50 1 1 0.000000 34.263509 30.771733 1.958381 0 0 0
51 1 1 0.000000 18.024851 16.167375 3.073876 0 0 0
52 1 1 0.000000 34.588417 12.220822 20.880726 0 0 0
53 1 1 0.000000 25.705916 23.108370 6.251629 0 0 0
54 1 1 0.000000 1.251313 4.189148 28.344280 0 0 0
55 1 1 0.000000 15.736920 13.332610 12.922266 0 0 0
56 1 1 0.000000 13.816564 9.541476 23.762842 0 0 0
57 1 1 0.000000 31.270368 32.532098 15.130592 0 0 0
58 1 1 0.000000 10.772175 28.775012 36.049118 0 0 0
59 1 1 0.000000 20.169809 35.778695 13.047940 0 0 0
60 1 1 0.000000 24.029882 8.857878 5.060747 0 0 0
61 1 1 0.000000 28.932342 24.670245 37.799197 0 0 0
62 1 1 0.000000 26.492709 30.757068 21.160718 0 0 0
63 1 1 0.000000 4.152766 16.094604 17.135375 0 0 0
64 1 1 0.000000 36.797833 10.413798 30.412334 0 0 0
65 1 1 0.000000 21.198859 7.081029 18.100626 0 0 0
66 1 1 0.000000 13.530652 38.450413 14.333093 -1 0 0
67 1 1 0.000000 0.344483 20.136326 21.780570 0 1 0
68 1 1 0.000000 13.714131 39.514091 21.602495 -1 0 0
69 1 1 0.000000 22.836650 11.872669 37.702157 0 0 0
70 1 1 0.000000 10.023096 5.952818 9.913595 0 0 0
71 1 1 0.000000 28.920501 12.783467 29.636107 0 0 0
72 1 1 0.000000 32.730365 20.660610 3.627974 0 0 0
73 1 1 0.000000 29.635592 16.512075 35.930712 0 0 0
74 1 1 0.000000 23.989537 35.065430 30.062254 0 0 0
75 1 1 0.000000 9.268649 2.139436 34.762855 0 0 0
76 1 1 0.000000 1.968692 16.518082 28.247430 0 0 0
77 1 1 0.000000 32.171896 39.178025 1.309742 -1 0 0
78 1 1 0.000000 9.201726 38.697593 8.665948 0 0 0
79 1 1 0.000000 13.859483 5.768839 16.586839 0 0 0
80 1 1 0.000000 29.803134 32.850855 36.544798 0 0 0
81 1 1 0.000000 31.524882 27.670422 8.103268 0 0 0
82 1 1 0.000000 32.643254 10.497790 2.440440 0 0 0
83 1 1 0.000000 10.879539 21.239225 29.408647 0 0 0
84 1 1 0.000000 27.097901 4.843682 39.406855 0 0 -1
85 1 1 0.000000 8.256434 3.381669 25.071584 0 0 0
86 1 1 0.000000 21.684456 17.054937 10.708442 0 0 0
87 1 1 0.000000 24.179551 16.454627 25.110718 0 0 0
88 1 1 0.000000 2.604114 4.094745 38.772678 0 0 -1
89 1 1 0.000000 17.607346 32.277747 37.624568 0 0 0
90 1 1 0.000000 34.106260 4.224755 24.545192 0 0 0
91 1 1 0.000000 26.327797 23.457766 19.008418 0 0 0
92 1 1 0.000000 16.712683 22.596135 9.570509 0 0 0
93 1 1 0.000000 20.863797 28.777164 5.360101 0 0 0
94 1 1 0.000000 19.645043 2.382962 34.406448 0 0 0
95 1 1 0.000000 6.601278 9.841943 21.554209 0 0 0
96 1 1 0.000000 6.996742 32.891129 4.982747 0 0 0

Bonds

1 1 42 52
2 1 40 41
3 1 18 84
4 1 19 80
5 1 8 19
6 1 61 63
7 1 79 83
8 1 26 57
9 1 11 84
10 1 23 82
11 1 4 20
12 1 47 55
13 1 71 93
14 1 20 84
15 1 26 55
16 1 14 63
17 1 14 79
18 1 75 80
19 1 19 72
20 1 8 66
21 1 69 75
22 1 29 96
23 1 34 39
24 1 53 91
25 1 2 69
26 1 30 86
27 1 4 90
28 1 47 74
29 1 16 94
30 1 8 36
31 1 52 65
32 1 16 85
33 1 44 79
34 1 78 92
35 1 46 93
36 1 27 29
37 1 68 94
38 1 15 58
39 1 2 7
40 1 12 68
41 1 41 49
42 1 21 26
43 1 6 25
44 1 42 63
45 1 28 66
46 1 10 80
47 1 22 73
48 1 17 60
49 1 56 85
50 1 35 83
51 1 33 45
52 1 36 42
53 1 58 68
54 1 5 17
55 1 60 78
56 1 7 96
57 1 9 96
58 1 55 95
59 1 9 56
60 1 18 72
61 1 41 48
62 1 1 15
63 1 51 60
64 1 9 77
65 1 20 89
66 1 50 57
67 1 88 95
68 1 13 14
69 1 44 46
70 1 59 89
71 1 44 86
72 1 24 54
73 1 33 72
74 1 11 52
75 1 56 92
76 1 6 67
77 1 35 85
78 1 30 87
79 1 22 94
80 1 4 5
81 1 46 88
82 1 6 13
83 1 39 74
84 1 48 75
85 1 18 39
86 1 16 59
87 1 45 92
88 1 7 88
89 1 38 76
90 1 33 76
91 1 57 82
92 1 31 47
93 1 2 58
94 1 35 45
95 1 53 74
96 1 50 81
97 1 15 67
98 1 54 82
99 1 17 95
100 1 23 27
101 1 87 91
102 1 28 78
103 1 5 22
104 1 23 24
105 1 10 90
106 1 31 73
107 1 11 43
108 1 13 87
109 1 32 59
110 1 69 71
111 1 27 32
112 1 3 65
113 1 3 90
114 1 24 62
115 1 50 53
116 1 29 83
117 1 73 86
118 1 37 51
119 1 1 34
120 1 28 40
121 1 31 62
122 1 12 66
123 1 21 40
124 1 64 71
125 1 12 48
126 1 32 70
127 1 21 51
128 1 62 91
129 1 81 93
130 1 49 61
131 1 64 81
132 1 49 67
133 1 10 77
134 1 36 64
135 1 54 77
136 1 1 30

