Generated by ZY

187 atoms
1 atom types
266 bonds
1 bond types

0.0000000000000000 50.0000000000000000 xlo xhi
0.0000000000000000 50.0000000000000000 ylo yhi
0.0000000000000000 50.0000000000000000 zlo zhi

Masses

1 1.000

Atoms # full

1 1 1 0.000000 45.832100 11.244555 18.961192 0 0 0
2 1 1 0.000000 4.892979 21.369121 21.061680 0 0 0
3 1 1 0.000000 5.996540 14.938191 15.770454 0 0 0
4 1 1 0.000000 10.385056 19.858675 26.060623 0 0 0
5 1 1 0.000000 22.252277 47.393879 9.599369 0 0 0
6 1 1 0.000000 24.810663 20.782431 19.905143 0 0 0
7 1 1 0.000000 27.967768 7.904827 45.305451 0 0 0
8 1 1 0.000000 32.144711 27.846729 12.483838 0 0 0
9 1 1 0.000000 36.278339 20.958647 44.117016 0 0 0
10 1 1 0.000000 41.260868 45.920285 32.843759 0 0 0
11 1 1 0.000000 36.641115 31.162738 21.009296 0 0 0
12 1 1 0.000000 9.273303 39.106129 13.093278 0 0 0
13 1 1 0.000000 39.702597 1.860146 25.622370 0 0 0
14 1 1 0.000000 2.839801 1.763685 26.771151 0 0 0
15 1 1 0.000000 6.210619 11.319889 37.252030 0 0 0
16 1 1 0.000000 40.223930 11.484943 36.210293 0 0 0
17 1 1 0.000000 43.508256 23.479029 19.923323 0 0 0
18 1 1 0.000000 6.207607 45.900535 38.531681 0 0 0
19 1 1 0.000000 48.007381 37.380468 11.885178 0 -1 1
20 1 1 0.000000 28.112759 22.564946 6.821201 0 0 0
21 1 1 0.000000 40.169120 3.297697 37.057588 0 0 0
22 1 1 0.000000 43.225481 3.678503 11.340947 0 0 0
23 1 1 0.000000 22.224693 35.045785 38.716920 0 0 0
24 1 1 0.000000 25.965521 7.283991 38.198845 0 0 0
25 1 1 0.000000 18.254348 1.039532 3.001531 0 0 0
26 1 1 0.000000 12.814768 19.792887 9.132205 0 0 0
27 1 1 0.000000 5.861334 30.025810 15.787793 0 0 0
28 1 1 0.000000 46.303302 47.649138 42.865130 0 0 0
29 1 1 0.000000 36.468535 46.750649 0.467079 0 0 0
30 1 1 0.000000 12.479040 7.036729 1.980346 0 0 0
31 1 1 0.000000 12.180700 23.675908 19.732762 0 0 0
32 1 1 0.000000 22.107881 37.125130 10.894560 0 0 0
33 1 1 0.000000 1.648538 34.439798 0.929158 0 1 1
34 1 1 0.000000 17.386419 25.339545 6.652799 0 0 0
35 1 1 0.000000 29.602625 28.790607 2.902162 0 0 0
36 1 1 0.000000 6.480300 6.297780 31.095192 0 0 0
37 1 1 0.000000 21.833465 20.190417 29.630316 0 0 0
38 1 1 0.000000 4.759452 15.890347 28.777963 0 0 0
39 1 1 0.000000 6.234171 21.562092 5.803832 0 0 0
40 1 1 0.000000 33.188174 4.511696 0.104372 0 0 1
41 1 1 0.000000 2.177935 0.269234 19.212851 1 0 0
42 1 1 0.000000 9.549214 49.553827 32.365707 -1 0 0
43 1 1 0.000000 47.585683 14.740419 34.532168 0 0 0
44 1 1 0.000000 7.468873 22.546995 13.924150 0 0 0
45 1 1 0.000000 5.435686 0.189562 48.442164 0 0 0
46 1 1 0.000000 2.743631 8.722854 7.448810 0 0 0
47 1 1 0.000000 12.055781 33.732687 48.156818 0 0 0
48 1 1 0.000000 24.791132 40.606558 46.775108 0 0 0
49 1 1 0.000000 39.825889 1.350181 45.389448 0 0 0
50 1 1 0.000000 45.080841 43.742091 49.214675 0 0 0
51 1 1 0.000000 49.608469 42.072772 36.987648 0 -1 0
52 1 1 0.000000 28.481526 46.650996 34.812446 0 0 0
53 1 1 0.000000 3.302316 15.374919 1.825298 0 0 0
54 1 1 0.000000 39.887828 39.126766 1.870501 0 0 0
55 1 1 0.000000 28.176139 48.912768 27.831695 0 0 0
56 1 1 0.000000 16.452657 8.841302 17.460117 0 0 0
57 1 1 0.000000 38.536544 2.914836 18.022400 0 0 0
58 1 1 0.000000 6.219175 32.155445 34.894295 0 0 0
59 1 1 0.000000 29.428037 18.648154 32.182410 0 0 0
60 1 1 0.000000 49.357946 10.679748 25.456444 0 0 0
61 1 1 0.000000 49.441001 23.129533 15.575092 0 0 0
62 1 1 0.000000 6.130646 42.411518 19.976996 0 0 0
63 1 1 0.000000 8.389693 29.530993 3.000096 0 0 0
64 1 1 0.000000 31.077443 15.214844 45.674766 0 0 0
65 1 1 0.000000 35.723032 36.776666 44.552128 0 0 0
66 1 1 0.000000 21.697942 29.823513 20.238952 0 0 0
67 1 1 0.000000 5.062495 27.060761 28.759584 0 0 0
68 1 1 0.000000 29.788981 27.019490 31.656560 0 0 0
69 1 1 0.000000 22.803812 29.862729 8.110508 0 0 0
70 1 1 0.000000 46.876923 48.148565 5.298760 0 0 0
71 1 1 0.000000 32.430278 8.778569 14.430093 0 0 0
72 1 1 0.000000 22.714930 33.472425 31.287192 0 0 0
73 1 1 0.000000 25.345296 12.978580 34.058619 0 0 0
74 1 1 0.000000 29.860063 1.534136 39.938503 0 0 0
75 1 1 0.000000 12.332387 23.414629 1.173229 0 0 0
76 1 1 0.000000 23.263518 23.608151 45.997610 0 0 0
77 1 1 0.000000 14.592832 43.758827 34.385523 0 0 0
78 1 1 0.000000 33.421817 38.883108 10.798546 0 0 0
79 1 1 0.000000 43.951865 15.958070 0.658548 0 0 0
80 1 1 0.000000 22.392066 30.553675 49.595292 0 0 0
81 1 1 0.000000 47.942594 44.158632 27.353189 0 0 0
82 1 1 0.000000 20.114379 16.979348 37.697664 0 0 0
83 1 1 0.000000 46.086756 15.609751 13.007404 0 0 0
84 1 1 0.000000 2.179518 16.206966 9.279671 0 0 0
85 1 1 0.000000 35.599066 29.932472 36.059624 0 0 0
86 1 1 0.000000 17.195551 23.525336 14.298272 0 0 0
87 1 1 0.000000 26.470605 1.635148 49.631792 0 0 0
88 1 1 0.000000 15.546035 38.694273 43.620350 0 0 0
89 1 1 0.000000 12.150943 12.366376 10.426573 0 0 0
90 1 1 0.000000 30.952953 2.652894 9.912810 0 0 0
91 1 1 0.000000 43.275609 7.706055 42.389942 0 0 0
92 1 1 0.000000 27.315860 11.565279 22.890587 0 0 0
93 1 1 0.000000 35.988648 24.287469 18.133321 0 0 0
94 1 1 0.000000 7.157723 4.117021 14.272268 0 0 0
95 1 1 0.000000 33.623320 7.411895 34.796659 0 0 0
96 1 1 0.000000 31.419303 10.749852 6.803504 0 0 0
97 1 1 0.000000 1.765758 36.863626 23.500767 0 1 0
98 1 1 0.000000 23.600966 27.565995 35.640991 0 0 0
99 1 1 0.000000 47.820633 35.751672 44.076473 0 0 0
100 1 1 0.000000 9.746258 32.154876 25.974680 0 0 0
101 1 1 0.000000 26.807908 39.446606 34.881486 0 0 0
102 1 1 0.000000 16.691590 26.772578 36.790629 0 0 0
103 1 1 0.000000 38.601486 9.079266 48.609078 0 0 0
104 1 1 0.000000 23.266243 45.458402 40.103894 0 0 0
105 1 1 0.000000 18.252551 30.464561 43.032064 0 0 0
106 1 1 0.000000 39.672063 2.657497 4.567094 0 0 0
107 1 1 0.000000 35.400626 21.819915 10.130088 0 0 0
108 1 1 0.000000 42.428456 19.415565 31.208349 0 0 0
109 1 1 0.000000 40.126293 19.078188 15.004043 0 0 0
110 1 1 0.000000 41.980630 45.388240 22.249712 0 0 0
111 1 1 0.000000 22.695193 36.451255 24.331754 0 0 0
112 1 1 0.000000 16.926371 14.746384 0.092314 0 0 0
113 1 1 0.000000 21.415131 16.368239 6.401311 0 0 0
114 1 1 0.000000 26.862007 19.433811 39.764118 0 0 0
115 1 1 0.000000 38.619794 14.118456 9.345711 0 0 0
116 1 1 0.000000 18.724322 7.186924 38.336307 0 0 0
117 1 1 0.000000 38.512774 12.326192 18.043284 0 0 0
118 1 1 0.000000 1.113274 49.015691 33.981732 0 0 0
119 1 1 0.000000 6.333722 38.233509 39.159966 0 0 0
120 1 1 0.000000 20.575768 48.619586 46.214301 -1 0 0
121 1 1 0.000000 22.979041 7.445451 3.167643 0 0 0
122 1 1 0.000000 24.094737 1.415908 17.606591 0 0 0
123 1 1 0.000000 33.640682 38.556839 20.832778 0 0 0
124 1 1 0.000000 23.227168 27.051338 27.757859 0 0 0
125 1 1 0.000000 11.343885 36.103981 19.764207 0 0 0
126 1 1 0.000000 40.867646 37.647732 9.340536 0 0 0
127 1 1 0.000000 33.037574 14.610249 38.044125 0 0 0
128 1 1 0.000000 42.101495 18.785432 38.695619 0 0 0
129 1 1 0.000000 14.389552 25.617207 28.623800 0 0 0
130 1 1 0.000000 7.525880 17.807664 41.996663 0 0 0
131 1 1 0.000000 28.484631 34.399590 7.874255 0 0 0
132 1 1 0.000000 15.629513 40.527207 9.137883 0 0 0
133 1 1 0.000000 15.997970 16.511274 31.505599 0 0 0
134 1 1 0.000000 48.842025 21.876763 2.855157 0 0 0
135 1 1 0.000000 28.564941 40.453712 26.195368 0 0 0
136 1 1 0.000000 35.740969 22.390298 32.063152 0 0 0
137 1 1 0.000000 35.035732 7.442825 23.753260 0 0 0
138 1 1 0.000000 18.628891 39.763060 18.899287 0 0 0
139 1 1 0.000000 44.080889 38.041822 24.401697 0 0 0
140 1 1 0.000000 16.567640 16.274525 24.164901 0 0 0
141 1 1 0.000000 48.465852 27.559386 47.385406 0 0 0
142 1 1 0.000000 17.072322 31.936886 25.949897 0 0 0
143 1 1 0.000000 29.849451 33.774716 16.124914 0 0 0
144 1 1 0.000000 23.792767 21.136418 12.502289 0 0 0
145 1 1 0.000000 40.210314 14.576603 44.270139 0 0 0
146 1 1 0.000000 17.290726 38.242747 30.276890 0 0 0
147 1 1 0.000000 2.500213 41.894779 48.742846 0 0 0
148 1 1 0.000000 0.948041 28.586962 5.935270 0 0 0
149 1 1 0.000000 10.332486 40.433662 28.048516 0 0 0
150 1 1 0.000000 14.844552 32.887913 6.695876 0 0 0
151 1 1 0.000000 1.832379 37.071477 31.592499 0 0 0
152 1 1 0.000000 12.835628 2.913493 38.260051 0 0 0
153 1 1 0.000000 37.710739 13.371450 29.146792 0 0 0
154 1 1 0.000000 11.982602 28.025609 11.536219 0 0 0
155 1 1 0.000000 21.744883 12.609237 27.729930 0 0 0
156 1 1 0.000000 18.686512 23.455792 23.041518 0 0 0
157 1 1 0.000000 24.144621 41.033726 4.612062 0 0 0
158 1 1 0.000000 44.141763 32.825573 0.885934 0 0 0
159 1 1 0.000000 9.652058 25.274846 41.827909 0 0 0
160 1 1 0.000000 12.343391 46.710437 42.779637 0 0 0
161 1 1 0.000000 26.186523 6.184798 28.331023 0 0 0
162 1 1 0.000000 36.236388 44.968798 16.495820 0 0 0
163 1 1 0.000000 1.725411 20.495245 37.553299 0 0 0
164 1 1 0.000000 47.505156 44.580824 16.873756 0 0 0
165 1 1 0.000000 40.013034 45.169816 7.646169 0 0 0
166 1 1 0.000000 29.000637 28.302357 40.505654 0 0 0
167 1 1 0.000000 39.526745 20.665870 4.247634 0 0 0
168 1 1 0.000000 45.746523 1.585388 29.639258 1 0 0
169 1 1 0.000000 0.271430 8.494194 0.028097 0 0 0
170 1 1 0.000000 30.542877 46.614031 45.459255 0 0 0
171 1 1 0.000000 16.233427 33.917864 14.345685 0 0 0
172 1 1 0.000000 13.324074 20.100784 37.236290 0 0 0
173 1 1 0.000000 48.133479 13.313244 43.926425 0 0 0
174 1 1 0.000000 17.447435 37.995906 1.810137 0 0 0
175 1 1 0.000000 11.127087 11.575520 31.251189 0 0 0
176 1 1 0.000000 31.712220 15.517955 18.356846 0 0 0
177 1 1 0.000000 9.944157 26.102201 34.322133 0 0 0
178 1 1 0.000000 16.765578 16.473347 16.902719 0 0 0
179 1 1 0.000000 9.400012 39.086029 4.658724 0 0 0
180 1 1 0.000000 43.782004 32.687462 18.926181 0 0 0
181 1 1 0.000000 29.463349 30.748891 23.371055 0 0 0
182 1 1 0.000000 37.417380 30.024553 2.689873 0 0 0
183 1 1 0.000000 34.965811 6.313916 42.311668 0 0 0
184 1 1 0.000000 3.154745 29.328059 41.350636 0 0 0
185 1 1 0.000000 6.766025 33.329007 9.068283 0 0 0
186 1 1 0.000000 41.609151 27.502167 25.802168 0 0 0
187 1 1 0.000000 42.156475 16.883236 23.412243 0 0 0

Bonds

1 1 106 109
2 1 51 116
3 1 67 106
4 1 6 116
5 1 93 167
6 1 111 127
7 1 37 73
8 1 15 133
9 1 6 178
10 1 40 111
11 1 4 95
12 1 69 162
13 1 61 158
14 1 33 63
15 1 84 148
16 1 116 160
17 1 138 161
18 1 63 148
19 1 34 179
20 1 129 135
21 1 4 154
22 1 88 91
23 1 110 153
24 1 60 114
25 1 91 94
26 1 119 182
27 1 112 128
28 1 118 147
29 1 2 27
30 1 77 170
31 1 58 184
32 1 35 109
33 1 100 163
34 1 177 185
35 1 18 74
36 1 27 61
37 1 101 124
38 1 90 123
39 1 104 149
40 1 114 119
41 1 15 175
42 1 46 57
43 1 129 138
44 1 13 84
45 1 65 87
46 1 21 145
47 1 20 24
48 1 11 135
49 1 63 84
50 1 91 187
51 1 52 85
52 1 28 87
53 1 33 78
54 1 6 13
55 1 129 140
56 1 45 53
57 1 33 47
58 1 70 181
59 1 102 166
60 1 44 119
61 1 32 135
62 1 38 178
63 1 10 128
64 1 66 124
65 1 32 131
66 1 88 104
67 1 12 27
68 1 8 50
69 1 88 165
70 1 75 125
71 1 57 70
72 1 105 114
73 1 113 115
74 1 142 148
75 1 20 122
76 1 82 155
77 1 38 112
78 1 64 153
79 1 165 183
80 1 31 34
81 1 30 113
82 1 67 180
83 1 17 176
84 1 175 186
85 1 21 175
86 1 133 154
87 1 17 49
88 1 85 145
89 1 70 95
90 1 42 130
91 1 15 18
92 1 118 163
93 1 38 130
94 1 56 61
95 1 85 181
96 1 95 127
97 1 54 73
98 1 2 8
99 1 40 131
100 1 18 78
101 1 14 137
102 1 132 179
103 1 52 65
104 1 45 183
105 1 37 156
106 1 25 123
107 1 9 40
108 1 8 131
109 1 53 75
110 1 68 117
111 1 49 96
112 1 64 159
113 1 57 89
114 1 29 71
115 1 44 121
116 1 50 52
117 1 20 68
118 1 74 103
119 1 35 58
120 1 163 184
121 1 104 120
122 1 78 164
123 1 26 94
124 1 81 146
125 1 107 176
126 1 16 45
127 1 23 111
128 1 35 68
129 1 146 149
130 1 1 153
131 1 7 44
132 1 32 93
133 1 64 82
134 1 37 82
135 1 74 125
136 1 76 98
137 1 173 176
138 1 26 182
139 1 48 150
140 1 12 31
141 1 77 120
142 1 93 137
143 1 101 144
144 1 48 126
145 1 125 146
146 1 46 103
147 1 5 137
148 1 121 157
149 1 157 181
150 1 19 149
151 1 94 112
152 1 17 162
153 1 120 155
154 1 62 151
155 1 13 46
156 1 48 166
157 1 117 136
158 1 3 185
159 1 72 86
160 1 26 150
161 1 101 177
162 1 28 145
163 1 28 152
164 1 109 184
165 1 50 75
166 1 10 49
167 1 132 157
168 1 51 139
169 1 47 66
170 1 23 62
171 1 71 122
172 1 144 150
173 1 30 130
174 1 3 168
175 1 80 140
176 1 77 139
177 1 14 58
178 1 9 127
179 1 16 76
180 1 144 167
181 1 59 140
182 1 43 170
183 1 86 113
184 1 5 25
185 1 164 165
186 1 34 147
187 1 97 107
188 1 10 164
189 1 42 169
190 1 39 173
191 1 122 124
192 1 56 121
193 1 22 29
194 1 19 67
195 1 5 123
196 1 16 39
197 1 167 186
198 1 115 155
199 1 118 174
200 1 97 117
201 1 56 134
202 1 62 179
203 1 126 158
204 1 147 182
205 1 98 102
206 1 60 136
207 1 21 161
208 1 9 80
209 1 142 183
210 1 97 136
211 1 12 54
212 1 2 139
213 1 22 106
214 1 126 138
215 1 143 186
216 1 53 169
217 1 83 134
218 1 71 171
219 1 76 79
220 1 141 185
221 1 51 159
222 1 39 54
223 1 100 177
224 1 166 172
225 1 60 90
226 1 159 160
227 1 24 103
228 1 134 187
229 1 69 89
230 1 22 92
231 1 7 23
232 1 69 96
233 1 42 133
234 1 1 72
235 1 66 158
236 1 47 154
237 1 80 151
238 1 169 173
239 1 19 174
240 1 83 142
241 1 7 87
242 1 11 92
243 1 30 160
244 1 151 161
245 1 4 14
246 1 1 168
247 1 171 178
248 1 41 86
249 1 72 98
250 1 100 141
251 1 29 43
252 1 24 110
253 1 25 89
254 1 73 96
255 1 41 128
256 1 55 180
257 1 105 174
258 1 90 170
259 1 110 180
260 1 83 92
261 1 107 108
262 1 55 156
263 1 36 162
264 1 81 99
265 1 31 172
266 1 99 152

