Generated by ZY

96 atoms
1 atom types
136 bonds
1 bond types

0.0000000000000000 40.0000000000000000 xlo xhi
0.0000000000000000 40.0000000000000000 ylo yhi
0.0000000000000000 40.0000000000000000 zlo zhi

Masses

1 1.000

Atoms # full

1 1 1 0.000000 29.982345 34.119960 25.724575 0 0 0
2 1 1 0.000000 13.915401 15.669918 8.272819 0 0 0
3 1 1 0.000000 8.886463 31.796885 28.314908 0 0 0
4 1 1 0.000000 4.960071 14.314506 28.879564 0 0 0
5 1 1 0.000000 26.102703 28.757951 34.304173 0 0 0
6 1 1 0.000000 29.191957 3.467631 28.808157 1 0 0
7 1 1 0.000000 34.282636 3.840388 7.112404 0 0 0
8 1 1 0.000000 2.906807 11.259282 37.356993 0 0 0
9 1 1 0.000000 25.756454 38.995372 16.107886 0 0 0
10 1 1 0.000000 6.235710 18.883237 12.419042 0 0 0
11 1 1 0.000000 19.729181 10.579497 13.856914 0 0 0
12 1 1 0.000000 22.461814 31.051285 2.493551 0 0 0
13 1 1 0.000000 26.825080 20.302321 34.703318 0 0 0
14 1 1 0.000000 8.644359 10.093429 14.031861 0 0 0
15 1 1 0.000000 1.261217 27.718966 0.653689 0 0 0
16 1 1 0.000000 14.134863 39.483994 28.805233 -1 0 0
17 1 1 0.000000 11.586730 17.763326 19.854482 0 0 0
18 1 1 0.000000 12.083541 15.384974 38.746987 0 0 0
19 1 1 0.000000 12.165799 8.304389 31.373154 0 0 0
20 1 1 0.000000 34.518622 21.905218 9.446397 0 0 0
21 1 1 0.000000 29.236592 24.842553 26.899793 0 0 0
22 1 1 0.000000 3.408583 24.423415 27.195506 0 0 0
23 1 1 0.000000 34.135699 12.522702 19.409009 0 0 0
24 1 1 0.000000 1.826525 7.116312 18.142434 0 0 0
25 1 1 0.000000 19.312199 20.909432 16.573394 0 0 0
26 1 1 0.000000 37.258898 9.092291 26.831543 0 0 0
27 1 1 0.000000 1.490633 18.254637 4.806294 0 0 0
28 1 1 0.000000 10.145327 8.015993 22.072155 0 0 0
29 1 1 0.000000 24.026817 9.049910 5.321792 0 0 0
30 1 1 0.000000 6.756124 34.449983 39.177129 0 0 -1
31 1 1 0.000000 15.146134 33.772888 20.094749 -1 0 0
32 1 1 0.000000 26.521416 17.370424 7.916912 0 0 0
33 1 1 0.000000 27.469559 2.452352 39.757337 0 0 0
34 1 1 0.000000 12.369416 19.047313 29.999550 0 0 0
35 1 1 0.000000 20.427637 5.461914 29.208465 0 0 0
36 1 1 0.000000 35.810787 20.068231 24.198073 0 0 0
37 1 1 0.000000 20.293097 21.400441 26.492290 0 0 0
38 1 1 0.000000 33.214103 20.158892 0.470100 0 0 0
39 1 1 0.000000 19.174081 23.540604 7.768229 0 -1 1
40 1 1 0.000000 18.044997 23.252749 35.471806 0 0 -1
41 1 1 0.000000 4.304018 26.443623 8.528545 0 1 0
42 1 1 0.000000 9.178525 26.035654 34.675038 0 0 0
43 1 1 0.000000 22.545102 28.445816 20.286549 0 0 0
44 1 1 0.000000 20.117452 39.077935 2.967989 0 0 0
45 1 1 0.000000 3.931648 3.278439 2.083411 0 0 0
46 1 1 0.000000 30.884168 31.926354 16.883342 0 0 0
47 1 1 0.000000 35.784747 15.525076 32.921727 0 0 0
48 1 1 0.000000 27.404378 11.195950 37.332344 0 0 0
49 1 1 0.000000 2.032661 2.366235 10.686702 0 1 0
50 1 1 0.000000 2.887364 20.324045 35.962576 0 0 0
51 1 1 0.000000 12.971213 25.714231 23.478712 0 0 0
52 1 1 0.000000 18.633077 30.193712 28.958503 0 0 0
53 1 1 0.000000 18.084505 2.349089 11.493015 0 0 0
54 1 1 0.000000 25.808295 15.708633 20.208443 0 0 0
55 1 1 0.000000 38.019750 35.830523 1.234583 0 0 1
56 1 1 0.000000 6.309858 29.460119 19.585144 0 0 0
57 1 1 0.000000 28.497096 36.352806 7.262982 0 0 1
58 1 1 0.000000 18.951944 7.354541 37.321824 0 0 -1
59 1 1 0.000000 6.581754 0.559865 24.381733 0 1 0
60 1 1 0.000000 12.345762 1.531111 37.638973 1 0 0
61 1 1 0.000000 24.995730 6.450729 21.370276 0 0 0
62 1 1 0.000000 28.781758 12.312633 28.647666 0 0 0
63 1 1 0.000000 10.900183 39.321742 6.552637 -1 0 0
64 1 1 0.000000 35.220655 24.775619 33.577580 0 -1 0
65 1 1 0.000000 39.039411 12.599011 11.652254 0 0 0
66 1 1 0.000000 10.031836 22.647874 3.277574 0 0 0
67 1 1 0.000000 27.143303 27.507807 9.294235 0 0 0
68 1 1 0.000000 19.592652 33.305345 11.642726 0 0 0
69 1 1 0.000000 22.430784 37.481811 24.551570 -1 0 0
70 1 1 0.000000 12.835440 30.767822 6.613475 0 0 0
71 1 1 0.000000 28.578870 10.314111 12.948894 0 0 0
72 1 1 0.000000 17.960238 12.541775 23.026973 0 0 0
73 1 1 0.000000 31.648307 29.151020 1.637981 0 0 1
74 1 1 0.000000 4.871916 2.890132 32.508861 0 0 0
75 1 1 0.000000 5.518906 34.260778 11.613023 0 0 0
76 1 1 0.000000 20.232913 14.203336 31.868286 0 0 0
77 1 1 0.000000 11.852412 25.913841 13.556198 0 0 0
78 1 1 0.000000 8.985493 0.855382 16.338543 1 0 0
79 1 1 0.000000 36.960587 31.356399 10.088328 0 0 0
80 1 1 0.000000 2.442679 16.320424 20.196423 0 1 0
81 1 1 0.000000 31.558926 36.739384 33.863297 0 0 0
82 1 1 0.000000 16.620440 3.072439 19.972525 0 0 0
83 1 1 0.000000 21.409076 16.797791 0.905376 0 0 1
84 1 1 0.000000 35.902152 5.777218 35.550576 0 0 0
85 1 1 0.000000 22.309415 37.432895 33.778570 0 0 0
86 1 1 0.000000 37.991916 39.317333 27.456074 0 -1 0
87 1 1 0.000000 35.642763 10.982676 2.656529 0 0 0
88 1 1 0.000000 30.002247 23.057458 17.309312 0 0 0
89 1 1 0.000000 15.604720 32.165039 37.618602 0 0 0
90 1 1 0.000000 6.687112 10.813447 5.333316 0 0 0
91 1 1 0.000000 37.697863 30.415715 24.223157 0 0 0
92 1 1 0.000000 39.709320 24.807215 16.385891 0 0 0
93 1 1 0.000000 39.052775 37.702909 18.050846 -1 0 0
94 1 1 0.000000 0.493938 32.552463 32.568151 0 1 0
95 1 1 0.000000 33.075086 3.650627 19.771130 0 0 0
96 1 1 0.000000 14.774054 7.487485 5.376357 0 0 0

Bonds

1 1 72 76
2 1 39 88
3 1 37 52
4 1 75 88
5 1 7 35
6 1 35 44
7 1 16 91
8 1 34 60
9 1 26 41
10 1 47 81
11 1 40 85
12 1 44 74
13 1 59 94
14 1 27 94
15 1 4 72
16 1 55 81
17 1 10 54
18 1 16 67
19 1 51 94
20 1 68 70
21 1 5 57
22 1 15 79
23 1 19 32
24 1 17 72
25 1 14 85
26 1 50 67
27 1 15 95
28 1 33 41
29 1 12 83
30 1 29 38
31 1 17 54
32 1 30 75
33 1 6 84
34 1 21 50
35 1 38 89
36 1 73 87
37 1 28 86
38 1 39 81
39 1 40 65
40 1 63 70
41 1 9 88
42 1 8 22
43 1 71 87
44 1 3 34
45 1 8 48
46 1 19 21
47 1 43 92
48 1 48 69
49 1 7 83
50 1 27 36
51 1 41 63
52 1 29 79
53 1 12 37
54 1 45 78
55 1 42 51
56 1 6 9
57 1 74 95
58 1 1 35
59 1 24 59
60 1 23 83
61 1 4 87
62 1 26 62
63 1 73 77
64 1 24 63
65 1 13 37
66 1 91 92
67 1 54 67
68 1 38 79
69 1 44 49
70 1 3 15
71 1 58 93
72 1 14 59
73 1 55 75
74 1 19 49
75 1 11 24
76 1 36 80
77 1 42 50
78 1 27 73
79 1 8 71
80 1 46 64
81 1 14 47
82 1 1 47
83 1 9 49
84 1 66 69
85 1 11 60
86 1 28 43
87 1 17 22
88 1 5 31
89 1 55 89
90 1 20 21
91 1 25 42
92 1 34 45
93 1 36 93
94 1 69 82
95 1 62 76
96 1 76 96
97 1 26 39
98 1 71 95
99 1 4 80
100 1 29 78
101 1 11 82
102 1 40 57
103 1 3 77
104 1 13 53
105 1 22 52
106 1 1 28
107 1 30 60
108 1 10 68
109 1 31 53
110 1 10 31
111 1 45 74
112 1 16 82
113 1 20 65
114 1 57 61
115 1 5 61
116 1 84 86
117 1 86 89
118 1 43 85
119 1 2 65
120 1 2 90
121 1 20 68
122 1 78 80
123 1 48 53
124 1 51 92
125 1 7 30
126 1 32 90
127 1 13 62
128 1 70 90
129 1 2 93
130 1 25 77
131 1 23 84
132 1 12 18
133 1 25 64
134 1 6 33
135 1 18 96
136 1 66 96

