Generated by ZY

96 atoms
1 atom types
136 bonds
1 bond types

0.0000000000000000 40.0000000000000000 xlo xhi
0.0000000000000000 40.0000000000000000 ylo yhi
0.0000000000000000 40.0000000000000000 zlo zhi

Masses

1 1.000

Atoms # full

1 1 1 0.000000 33.085409 15.734242 13.466390 0 0 0
2 1 1 0.000000 39.380360 17.930651 29.402974 0 0 0
3 1 1 0.000000 23.620122 35.533325 22.283293 0 0 0
4 1 1 0.000000 35.826864 6.684933 29.737562 1 0 0
5 1 1 0.000000 19.769385 25.229889 9.999784 0 0 0
6 1 1 0.000000 30.586664 29.957236 24.560114 0 0 0
7 1 1 0.000000 2.019642 19.905531 17.716161 0 1 0
8 1 1 0.000000 32.995473 33.342085 15.868462 0 0 0
9 1 1 0.000000 3.510880 11.104572 23.044086 0 1 0
10 1 1 0.000000 39.010911 15.684199 39.179531 0 0 -1
11 1 1 0.000000 20.379799 12.914075 28.658248 0 0 0
12 1 1 0.000000 2.314260 1.994908 24.941293 0 1 0
13 1 1 0.000000 22.162968 36.162453 33.928039 0 0 0
14 1 1 0.000000 28.888038 12.126833 29.294859 0 0 0
15 1 1 0.000000 27.891137 6.877798 7.627340 0 0 0
16 1 1 0.000000 3.855819 12.927888 11.061179 0 0 0
17 1 1 0.000000 16.262042 1.607506 17.904975 0 0 0
18 1 1 0.000000 0.521619 2.121207 36.306523 0 1 0
19 1 1 0.000000 38.681734 6.142792 16.502315 0 0 0
20 1 1 0.000000 9.028168 17.959685 25.755580 0 0 0
21 1 1 0.000000 24.646217 14.686165 19.526244 0 0 0
22 1 1 0.000000 22.776937 19.476310 2.958691 0 0 0
23 1 1 0.000000 5.246598 1.143299 9.611183 0 0 0
24 1 1 0.000000 21.702340 19.550545 34.488879 0 0 0
25 1 1 0.000000 19.272881 4.821825 32.399514 1 0 0
26 1 1 0.000000 39.005582 32.930370 38.394208 0 0 -1
27 1 1 0.000000 8.658271 32.501034 22.160246 0 1 0
28 1 1 0.000000 14.960814 16.090723 8.576097 0 0 0
29 1 1 0.000000 37.575612 39.575684 4.488582 -1 -1 0
30 1 1 0.000000 8.041183 21.700219 10.283484 0 0 0
31 1 1 0.000000 0.597657 37.530222 16.310500 0 0 0
32 1 1 0.000000 17.391590 20.399111 25.992360 0 0 0
33 1 1 0.000000 4.218345 25.089234 28.142477 0 1 0
34 1 1 0.000000 1.942121 24.340228 0.163299 0 1 0
35 1 1 0.000000 26.394668 39.105213 3.191919 -1 0 1
36 1 1 0.000000 30.991336 2.044722 22.630737 0 0 0
37 1 1 0.000000 4.114046 7.672393 2.882062 0 0 0
38 1 1 0.000000 35.019283 25.160123 14.701019 0 0 0
39 1 1 0.000000 24.593395 31.991450 13.374883 0 0 0
40 1 1 0.000000 35.738079 22.702409 23.396825 0 0 0
41 1 1 0.000000 28.939315 23.355628 8.196643 0 0 0
42 1 1 0.000000 7.755177 5.002439 17.978265 0 0 0
43 1 1 0.000000 33.624272 7.625451 39.226968 0 0 0
44 1 1 0.000000 29.428004 7.839559 16.029449 0 0 0
45 1 1 0.000000 39.134162 31.072380 22.219396 0 0 0
46 1 1 0.000000 22.133413 27.815046 26.774116 0 0 0
47 1 1 0.000000 10.532822 3.028395 29.130783 0 0 0
48 1 1 0.000000 39.407243 30.339148 6.416381 0 0 0
49 1 1 0.000000 7.274219 17.044272 2.793431 0 0 0
50 1 1 0.000000 16.106305 0.261908 8.925653 1 0 0
51 1 1 0.000000 30.918966 32.421587 7.212924 0 0 1
52 1 1 0.000000 12.818661 36.641108 34.740512 0 0 0
53 1 1 0.000000 32.773308 25.819662 0.509614 0 0 1
54 1 1 0.000000 34.651567 12.659074 22.708226 0 0 0
55 1 1 0.000000 17.440091 19.751508 16.587616 0 0 0
56 1 1 0.000000 8.385682 28.527603 35.906503 0 1 0
57 1 1 0.000000 17.304034 29.797430 19.982888 0 0 0
58 1 1 0.000000 24.148037 15.589674 10.257545 0 0 0
59 1 1 0.000000 10.424897 14.795310 16.950613 0 0 0
60 1 1 0.000000 3.175473 10.452845 33.150762 0 0 0
61 1 1 0.000000 29.109775 1.670240 32.972840 1 0 0
62 1 1 0.000000 15.799978 36.385448 26.063549 0 0 0
63 1 1 0.000000 10.253878 5.758499 37.442356 0 0 0
64 1 1 0.000000 11.462488 8.151534 7.870673 0 0 0
65 1 1 0.000000 31.332340 15.554631 4.163147 0 0 0
66 1 1 0.000000 3.215125 29.079727 14.630379 0 0 0
67 1 1 0.000000 15.508657 33.407936 2.786325 0 0 1
68 1 1 0.000000 4.361578 34.784697 29.563253 0 1 0
69 1 1 0.000000 7.181618 19.236432 34.428297 0 0 0
70 1 1 0.000000 25.729800 23.898127 17.361584 0 0 0
71 1 1 0.000000 12.523530 31.922981 13.003189 0 0 0
72 1 1 0.000000 23.200841 5.987606 23.408683 1 0 0
73 1 1 0.000000 24.175522 10.748394 37.694641 0 0 0
74 1 1 0.000000 13.496313 23.732755 3.495730 0 0 0
75 1 1 0.000000 31.276387 17.643396 35.375217 0 0 0
76 1 1 0.000000 27.683058 26.011273 33.304082 0 0 0
77 1 1 0.000000 36.756569 8.303377 7.468834 0 0 0
78 1 1 0.000000 20.032902 8.703328 5.751475 0 0 0
79 1 1 0.000000 9.550875 23.470884 19.329542 0 0 0
80 1 1 0.000000 18.152268 9.632028 14.786228 0 0 0
81 1 1 0.000000 32.847546 0.858887 11.609210 1 0 0
82 1 1 0.000000 13.428126 9.077216 24.131627 0 0 0
83 1 1 0.000000 29.704323 33.507110 36.987540 0 0 0
84 1 1 0.000000 12.257647 12.453238 32.121200 0 0 0
85 1 1 0.000000 24.063256 1.456292 13.580821 0 0 0
86 1 1 0.000000 12.846627 28.170744 28.471162 0 0 0
87 1 1 0.000000 36.058629 38.013410 29.590869 0 0 0
88 1 1 0.000000 36.409595 28.078608 31.850293 0 0 0
89 1 1 0.000000 17.804028 1.694332 0.125378 1 0 0
90 1 1 0.000000 7.310035 37.803844 2.273842 -1 0 0
91 1 1 0.000000 24.094481 28.715142 3.022054 0 0 1
92 1 1 0.000000 27.580282 20.212013 26.060190 0 0 0
93 1 1 0.000000 38.947946 20.533623 7.324183 0 0 0
94 1 1 0.000000 7.517708 29.165157 6.512538 -1 0 1
95 1 1 0.000000 17.441002 26.859750 36.303094 0 0 0
96 1 1 0.000000 15.392041 15.130843 39.443454 0 0 -1

Bonds

1 1 12 31
2 1 7 86
3 1 12 70
4 1 21 69
5 1 2 46
6 1 39 44
7 1 24 65
8 1 42 63
9 1 40 41
10 1 17 85
11 1 8 93
12 1 22 91
13 1 22 55
14 1 6 39
15 1 34 89
16 1 69 76
17 1 12 60
18 1 37 63
19 1 7 22
20 1 18 28
21 1 24 87
22 1 38 45
23 1 1 70
24 1 7 9
25 1 29 91
26 1 75 81
27 1 79 94
28 1 33 62
29 1 17 39
30 1 62 76
31 1 8 38
32 1 23 59
33 1 33 67
34 1 17 77
35 1 86 92
36 1 5 58
37 1 38 53
38 1 64 70
39 1 8 26
40 1 1 90
41 1 68 80
42 1 49 55
43 1 16 50
44 1 14 60
45 1 80 93
46 1 1 26
47 1 11 66
48 1 56 78
49 1 24 76
50 1 64 96
51 1 23 45
52 1 20 42
53 1 5 37
54 1 5 16
55 1 21 87
56 1 9 93
57 1 65 83
58 1 10 43
59 1 65 74
60 1 36 57
61 1 57 86
62 1 3 35
63 1 52 62
64 1 45 81
65 1 87 89
66 1 23 96
67 1 30 44
68 1 14 25
69 1 58 79
70 1 71 90
71 1 30 66
72 1 30 79
73 1 81 94
74 1 42 50
75 1 25 77
76 1 67 74
77 1 44 49
78 1 11 59
79 1 26 46
80 1 2 14
81 1 36 84
82 1 19 92
83 1 6 33
84 1 20 77
85 1 9 84
86 1 10 75
87 1 56 95
88 1 15 37
89 1 28 96
90 1 27 46
91 1 43 78
92 1 60 74
93 1 59 78
94 1 6 20
95 1 4 66
96 1 32 84
97 1 73 80
98 1 16 27
99 1 64 67
100 1 11 25
101 1 4 35
102 1 21 57
103 1 49 73
104 1 90 91
105 1 32 55
106 1 43 92
107 1 35 68
108 1 48 69
109 1 31 71
110 1 50 94
111 1 27 51
112 1 29 48
113 1 47 75
114 1 63 73
115 1 28 47
116 1 15 48
117 1 31 68
118 1 89 95
119 1 36 51
120 1 53 56
121 1 2 82
122 1 51 53
123 1 3 32
124 1 18 61
125 1 4 85
126 1 61 83
127 1 19 47
128 1 3 95
129 1 19 58
130 1 10 15
131 1 13 72
132 1 13 52
133 1 13 41
134 1 18 54
135 1 54 71
136 1 29 88

