Generated by ZY code

96 atoms
1 atom types
136 bonds
1 bond types
0 angles
0 angle types
0 dihedrals
0 dihedral types
0 impropers
0 improper types

0.0000000000000000 40.0000000000000000 xlo xhi
0.0000000000000000 40.0000000000000000 ylo yhi
0.0000000000000000 40.0000000000000000 zlo zhi

Masses

1 1.000

Atoms # full

1 1 1 0.000000 28.562663 19.026902 22.071103 0 0 0
2 1 1 0.000000 34.354000 23.499385 36.467277 0 0 -1
3 1 1 0.000000 1.831450 2.762161 32.661257 1 0 0
4 1 1 0.000000 31.072272 13.641352 15.776693 0 0 0
5 1 1 0.000000 39.902694 16.619184 13.484412 0 -1 0
6 1 1 0.000000 16.611358 36.564333 35.385991 0 0 0
7 1 1 0.000000 14.866806 29.289653 8.129354 0 0 0
8 1 1 0.000000 3.137917 13.007574 5.552074 0 0 1
9 1 1 0.000000 15.342769 30.187999 18.503810 0 0 0
10 1 1 0.000000 8.133966 21.737411 5.364297 0 0 0
11 1 1 0.000000 39.960271 29.117358 18.702294 0 0 0
12 1 1 0.000000 8.999177 35.714589 20.561596 -1 0 0
13 1 1 0.000000 6.295132 3.267228 25.250257 1 0 -1
14 1 1 0.000000 21.471968 24.408640 21.369692 0 0 0
15 1 1 0.000000 8.429412 4.674865 17.204373 0 0 0
16 1 1 0.000000 22.350766 33.694783 22.138254 0 0 0
17 1 1 0.000000 21.001486 14.098301 23.308910 0 0 0
18 1 1 0.000000 28.428897 33.758194 8.118845 -1 0 0
19 1 1 0.000000 31.252080 7.208971 32.428222 0 0 0
20 1 1 0.000000 39.865677 34.962388 27.007433 -1 0 0
21 1 1 0.000000 5.601392 28.178287 26.592000 0 0 0
22 1 1 0.000000 39.222276 20.102494 3.197102 0 0 0
23 1 1 0.000000 31.456672 32.514352 26.296132 -1 0 0
24 1 1 0.000000 13.583539 8.970190 23.775601 0 0 0
25 1 1 0.000000 29.826470 1.244036 25.001547 0 0 0
26 1 1 0.000000 14.149148 29.227839 27.546439 0 0 0
27 1 1 0.000000 18.444913 37.354736 4.110402 0 0 0
28 1 1 0.000000 10.592383 37.480772 8.038798 0 0 0
29 1 1 0.000000 17.696715 11.425861 31.589484 0 0 0
30 1 1 0.000000 39.008881 8.618654 26.806686 0 -1 0
31 1 1 0.000000 0.860868 7.428902 14.112741 0 1 0
32 1 1 0.000000 6.539803 23.479642 19.464841 0 0 0
33 1 1 0.000000 22.046520 28.693430 30.868745 0 0 0
34 1 1 0.000000 34.443973 1.915053 11.300291 0 0 0
35 1 1 0.000000 38.065669 20.655302 21.511281 0 0 0
36 1 1 0.000000 11.352701 16.402842 37.738246 0 0 0
37 1 1 0.000000 29.847700 25.447995 4.043686 0 0 0
38 1 1 0.000000 26.132079 37.652707 39.853120 0 0 0
39 1 1 0.000000 12.527648 3.905200 33.279883 0 0 0
40 1 1 0.000000 21.157848 28.968635 0.200769 0 0 1
41 1 1 0.000000 14.150090 13.437377 5.923226 0 0 0
42 1 1 0.000000 1.744381 39.865509 5.568258 -1 0 0
43 1 1 0.000000 16.087941 5.572100 1.859092 0 0 0
44 1 1 0.000000 8.481729 11.225255 30.249400 0 0 0
45 1 1 0.000000 7.852205 8.475618 39.678952 0 0 0
46 1 1 0.000000 28.871833 5.594602 1.809748 0 0 1
47 1 1 0.000000 33.889154 11.791166 6.903173 0 0 0
48 1 1 0.000000 30.948395 36.116394 17.487998 -1 0 0
49 1 1 0.000000 35.933166 31.952898 11.625296 -1 0 0
50 1 1 0.000000 7.936061 6.031076 8.409384 0 0 0
51 1 1 0.000000 36.051499 17.124227 29.495055 0 -1 0
52 1 1 0.000000 31.667624 15.636839 38.908164 0 0 0
53 1 1 0.000000 27.089482 5.456130 16.901039 0 0 0
54 1 1 0.000000 2.092692 15.035179 35.595349 0 1 0
55 1 1 0.000000 24.921293 36.824605 30.277206 0 0 0
56 1 1 0.000000 29.410959 24.487264 28.879295 0 0 0
57 1 1 0.000000 18.881782 20.155861 31.315271 0 0 0
58 1 1 0.000000 12.780205 19.344455 24.890632 0 0 0
59 1 1 0.000000 25.435390 21.228611 37.068058 0 0 0
60 1 1 0.000000 19.919335 35.370245 12.563123 0 0 0
61 1 1 0.000000 16.828152 11.200753 15.873950 0 0 0
62 1 1 0.000000 19.053452 2.132170 18.379653 1 0 0
63 1 1 0.000000 30.362030 27.369924 18.814497 0 0 0
64 1 1 0.000000 22.362444 4.571071 35.181416 0 0 0
65 1 1 0.000000 33.619709 38.108024 32.461165 -1 0 -1
66 1 1 0.000000 4.575906 19.557644 28.236392 0 0 0
67 1 1 0.000000 13.251531 26.176522 36.367243 0 0 0
68 1 1 0.000000 22.612239 6.104938 25.932710 0 0 0
69 1 1 0.000000 0.371272 33.264373 36.106810 0 1 0
70 1 1 0.000000 3.596504 37.677455 14.031931 0 1 0
71 1 1 0.000000 33.918724 22.349473 11.457079 0 0 0
72 1 1 0.000000 5.000793 12.446050 20.960761 0 0 0
73 1 1 0.000000 26.087162 14.446931 30.845094 0 0 0
74 1 1 0.000000 34.403643 36.827805 1.804222 0 0 0
75 1 1 0.000000 21.792287 10.271737 7.910182 0 0 0
76 1 1 0.000000 37.629313 25.740386 28.151974 0 0 0
77 1 1 0.000000 26.455424 17.254258 5.872674 0 0 0
78 1 1 0.000000 39.226724 28.832379 3.125672 0 0 0
79 1 1 0.000000 37.682248 1.745714 21.241045 0 0 0
80 1 1 0.000000 37.709081 5.952130 0.532443 0 -1 0
81 1 1 0.000000 8.117187 14.784898 12.321209 0 0 0
82 1 1 0.000000 16.170548 38.999780 26.552194 0 0 0
83 1 1 0.000000 25.156240 1.695990 9.605750 1 0 0
84 1 1 0.000000 6.534399 28.178236 12.149755 0 0 0
85 1 1 0.000000 15.147266 22.403959 14.783047 0 0 0
86 1 1 0.000000 31.025493 10.402571 23.757863 0 0 0
87 1 1 0.000000 22.701226 17.126206 14.328969 0 0 0
88 1 1 0.000000 29.782516 30.895518 35.763791 0 0 0
89 1 1 0.000000 23.801023 26.945086 11.805371 0 0 0
90 1 1 0.000000 7.830735 30.601685 2.808390 0 1 0
91 1 1 0.000000 8.106609 35.716949 30.659416 0 0 0
92 1 1 0.000000 7.691100 38.899512 38.895806 0 0 -1
93 1 1 0.000000 16.066021 4.109760 10.937422 0 0 0
94 1 1 0.000000 21.587747 12.898299 38.816532 0 0 0
95 1 1 0.000000 18.089159 20.831586 3.187683 0 0 0
96 1 1 0.000000 4.837740 24.081469 37.439708 0 1 0

Bonds

1 1 36 96
2 1 17 56
3 1 59 80
4 1 18 19
5 1 28 78
6 1 67 87
7 1 37 49
8 1 13 62
9 1 2 37
10 1 9 14
11 1 44 78
12 1 68 73
13 1 71 74
14 1 5 62
15 1 16 85
16 1 57 68
17 1 17 81
18 1 57 81
19 1 23 64
20 1 45 94
21 1 10 19
22 1 15 54
23 1 2 68
24 1 72 81
25 1 16 58
26 1 7 31
27 1 64 93
28 1 15 28
29 1 32 76
30 1 63 84
31 1 46 73
32 1 51 96
33 1 77 83
34 1 3 78
35 1 26 91
36 1 69 74
37 1 12 70
38 1 22 96
39 1 14 57
40 1 15 48
41 1 11 63
42 1 2 10
43 1 13 26
44 1 25 44
45 1 22 47
46 1 28 29
47 1 51 93
48 1 17 50
49 1 3 38
50 1 13 31
51 1 20 91
52 1 1 89
53 1 40 52
54 1 18 22
55 1 42 79
56 1 1 23
57 1 49 69
58 1 48 69
59 1 60 93
60 1 40 47
61 1 90 92
62 1 23 95
63 1 61 85
64 1 33 41
65 1 27 95
66 1 73 95
67 1 48 86
68 1 41 82
69 1 52 91
70 1 19 24
71 1 27 83
72 1 66 72
73 1 54 56
74 1 27 31
75 1 62 79
76 1 21 59
77 1 1 94
78 1 35 67
79 1 37 70
80 1 24 45
81 1 49 80
82 1 30 80
83 1 60 70
84 1 25 32
85 1 35 58
86 1 10 44
87 1 43 87
88 1 8 35
89 1 46 53
90 1 83 89
91 1 4 79
92 1 20 55
93 1 6 61
94 1 46 55
95 1 18 87
96 1 55 65
97 1 7 16
98 1 36 53
99 1 8 34
100 1 36 94
101 1 33 38
102 1 51 66
103 1 54 58
104 1 21 56
105 1 40 71
106 1 21 43
107 1 12 30
108 1 32 33
109 1 5 26
110 1 43 64
111 1 45 86
112 1 5 75
113 1 9 76
114 1 3 6
115 1 59 67
116 1 14 60
117 1 7 29
118 1 77 85
119 1 88 89
120 1 65 76
121 1 65 77
122 1 66 88
123 1 24 29
124 1 9 92
125 1 25 50
126 1 6 82
127 1 41 92
128 1 38 39
129 1 30 39
130 1 4 53
131 1 39 82
132 1 63 90
133 1 11 88
134 1 52 74
135 1 72 84
136 1 34 75

