Generated by ZY code

187 atoms
1 atom types
266 bonds
1 bond types
0 angles
0 angle types
0 dihedrals
0 dihedral types
0 impropers
0 improper types

0.0000000000000000 50.0000000000000000 xlo xhi
0.0000000000000000 50.0000000000000000 ylo yhi
0.0000000000000000 50.0000000000000000 zlo zhi

Masses

1 1.000

Atoms # full

1 1 1 0.000000 44.654891 41.312046 27.329489 -1 -1 0
2 1 1 0.000000 45.018571 25.473794 37.777161 0 0 0
3 1 1 0.000000 20.471388 29.786389 10.556851 0 0 0
4 1 1 0.000000 14.969691 17.272878 5.073439 0 0 0
5 1 1 0.000000 45.738425 43.086450 39.081616 0 0 0
6 1 1 0.000000 49.204731 49.010033 10.437343 0 0 0
7 1 1 0.000000 7.453148 49.885949 13.729285 -1 0 0
8 1 1 0.000000 14.531409 32.637270 28.457483 0 0 0
9 1 1 0.000000 25.771569 20.057982 39.175697 0 0 0
10 1 1 0.000000 43.179212 29.245118 16.827717 0 -1 0
11 1 1 0.000000 36.520199 21.885446 2.001394 0 0 0
12 1 1 0.000000 48.355936 35.949580 45.562182 0 0 0
13 1 1 0.000000 40.187264 6.056754 18.300092 0 0 0
14 1 1 0.000000 49.429227 45.937300 17.575013 0 0 0
15 1 1 0.000000 47.430860 32.374763 4.737709 0 0 0
16 1 1 0.000000 49.666922 24.991393 5.840588 0 0 0
17 1 1 0.000000 37.127360 23.419339 33.865042 0 0 0
18 1 1 0.000000 27.711053 40.063190 17.874377 0 0 0
19 1 1 0.000000 45.877499 39.167524 2.303322 0 0 0
20 1 1 0.000000 46.007300 12.876592 17.591342 0 0 0
21 1 1 0.000000 18.004227 17.803517 26.332795 0 0 0
22 1 1 0.000000 36.271338 13.829488 1.337103 0 0 0
23 1 1 0.000000 49.140513 35.545356 28.372881 0 0 0
24 1 1 0.000000 24.491540 22.830595 45.946004 0 0 0
25 1 1 0.000000 23.881775 14.008614 2.820344 0 0 0
26 1 1 0.000000 14.049421 9.173362 12.802274 0 0 0
27 1 1 0.000000 43.279361 2.230955 12.970171 0 0 0
28 1 1 0.000000 2.816264 5.318950 7.874951 0 0 0
29 1 1 0.000000 9.732316 43.866738 21.789506 0 0 0
30 1 1 0.000000 42.544644 26.724770 3.566675 0 0 0
31 1 1 0.000000 18.112193 0.144655 14.201446 0 0 0
32 1 1 0.000000 47.657784 41.456600 11.398889 0 0 0
33 1 1 0.000000 19.892343 21.690207 8.310108 0 0 0
34 1 1 0.000000 10.360419 16.050400 46.645164 0 0 0
35 1 1 0.000000 34.602256 1.276286 37.295912 0 0 0
36 1 1 0.000000 41.213038 40.943753 33.983026 0 0 0
37 1 1 0.000000 36.718179 5.214542 24.694302 0 0 0
38 1 1 0.000000 4.063151 33.648425 3.632924 0 0 0
39 1 1 0.000000 21.567539 8.804648 14.081563 0 0 0
40 1 1 0.000000 11.381751 4.198495 34.851233 0 0 0
41 1 1 0.000000 4.416123 1.491900 2.319783 1 0 0
42 1 1 0.000000 25.518546 2.912587 14.627141 0 0 0
43 1 1 0.000000 17.721096 5.915365 19.198266 0 0 0
44 1 1 0.000000 37.025250 33.730291 6.570942 0 0 0
45 1 1 0.000000 41.124438 48.716968 39.377104 -1 0 0
46 1 1 0.000000 4.430643 9.374322 40.947391 0 0 0
47 1 1 0.000000 17.794481 6.234598 1.613802 0 0 0
48 1 1 0.000000 48.089132 46.238170 1.836561 0 0 1
49 1 1 0.000000 34.983203 37.222752 0.160993 0 0 1
50 1 1 0.000000 3.211503 40.052431 1.329016 0 0 0
51 1 1 0.000000 24.224825 8.104200 36.643328 0 0 0
52 1 1 0.000000 35.121292 29.350620 11.870401 0 0 0
53 1 1 0.000000 5.842219 5.824333 19.078124 0 0 0
54 1 1 0.000000 4.142119 45.208282 29.757366 0 0 0
55 1 1 0.000000 34.624921 0.294038 49.040082 1 0 0
56 1 1 0.000000 16.048575 36.908347 6.249482 0 0 0
57 1 1 0.000000 6.905146 8.193134 48.425621 0 0 0
58 1 1 0.000000 24.852251 46.000368 12.382795 0 0 0
59 1 1 0.000000 18.768790 16.282802 34.290055 0 0 0
60 1 1 0.000000 22.901641 33.232261 22.183554 0 0 0
61 1 1 0.000000 42.944167 31.007506 9.939201 0 0 0
62 1 1 0.000000 29.297738 48.632982 45.109441 0 0 0
63 1 1 0.000000 20.671443 26.840208 24.814162 0 0 0
64 1 1 0.000000 33.882935 43.100395 46.283393 0 0 0
65 1 1 0.000000 42.015505 15.342016 44.550136 0 0 0
66 1 1 0.000000 17.220489 44.072439 4.465778 0 0 0
67 1 1 0.000000 32.296905 28.761810 3.713322 0 0 0
68 1 1 0.000000 19.126339 39.713129 45.583119 0 0 0
69 1 1 0.000000 23.218115 32.491479 46.704865 0 0 0
70 1 1 0.000000 47.987559 20.311002 33.333880 0 0 0
71 1 1 0.000000 4.220356 44.867140 7.145863 0 0 0
72 1 1 0.000000 41.240078 11.557236 6.438701 0 0 0
73 1 1 0.000000 7.831169 22.975004 27.208730 0 0 0
74 1 1 0.000000 48.939473 20.499374 17.569476 0 0 0
75 1 1 0.000000 17.425023 8.217348 33.844895 0 0 0
76 1 1 0.000000 21.884035 14.228191 9.768431 0 0 0
77 1 1 0.000000 35.632111 44.207005 37.435496 0 0 0
78 1 1 0.000000 7.250847 22.562059 48.907215 0 0 0
79 1 1 0.000000 49.172675 10.788255 3.863254 0 0 0
80 1 1 0.000000 38.163680 34.565098 43.482622 0 0 0
81 1 1 0.000000 16.132314 23.392512 36.365401 0 0 0
82 1 1 0.000000 10.169215 27.725258 39.750551 0 0 0
83 1 1 0.000000 45.421777 29.047545 47.042251 0 0 0
84 1 1 0.000000 19.641729 16.781050 45.067233 0 0 0
85 1 1 0.000000 15.639176 24.062556 29.234913 0 0 0
86 1 1 0.000000 31.390131 23.905871 14.494904 0 0 0
87 1 1 0.000000 5.384932 2.308892 26.095923 0 0 0
88 1 1 0.000000 37.690755 4.825270 3.558805 0 0 0
89 1 1 0.000000 8.634831 31.914861 17.510472 0 0 0
90 1 1 0.000000 23.325529 14.632703 22.439255 0 0 0
91 1 1 0.000000 1.356992 3.905153 45.262714 0 0 0
92 1 1 0.000000 16.589006 26.234410 3.429140 0 0 0
93 1 1 0.000000 25.340558 8.118169 24.428118 0 0 0
94 1 1 0.000000 27.084158 26.788914 8.481108 0 0 0
95 1 1 0.000000 40.466373 5.683735 41.173970 0 0 0
96 1 1 0.000000 26.279188 20.789068 26.045586 0 0 0
97 1 1 0.000000 14.414802 45.174084 44.383732 0 0 0
98 1 1 0.000000 23.621738 44.942356 45.849362 0 0 0
99 1 1 0.000000 31.806741 39.247360 32.772441 0 0 0
100 1 1 0.000000 20.349079 20.256865 1.320146 0 0 0
101 1 1 0.000000 3.309379 15.197181 48.773719 0 0 0
102 1 1 0.000000 41.179566 33.575074 0.675774 0 0 0
103 1 1 0.000000 8.169176 16.212065 4.518370 0 0 0
104 1 1 0.000000 29.104934 7.306671 9.767223 0 0 0
105 1 1 0.000000 13.488974 1.425432 41.061276 0 0 0
106 1 1 0.000000 17.720066 30.882584 41.658777 0 0 0
107 1 1 0.000000 20.247024 1.361387 35.631817 0 0 0
108 1 1 0.000000 21.862457 0.084565 1.783416 0 0 0
109 1 1 0.000000 2.760907 30.502395 47.291589 0 1 0
110 1 1 0.000000 11.361537 9.454410 22.718751 0 0 0
111 1 1 0.000000 36.395774 7.874188 10.738881 0 0 0
112 1 1 0.000000 5.713623 29.693145 10.701653 0 0 0
113 1 1 0.000000 47.746593 6.618932 37.146543 0 0 0
114 1 1 0.000000 41.797629 20.652206 28.671322 0 0 0
115 1 1 0.000000 46.990435 3.591112 1.013627 0 0 1
116 1 1 0.000000 0.984735 25.664307 42.197075 0 1 0
117 1 1 0.000000 21.546327 28.628416 35.399221 0 0 0
118 1 1 0.000000 5.290163 13.332108 20.479091 0 0 0
119 1 1 0.000000 10.212634 15.261321 39.287298 0 0 0
120 1 1 0.000000 47.632497 5.902663 19.106116 0 0 0
121 1 1 0.000000 1.610281 17.881986 5.916966 0 0 0
122 1 1 0.000000 27.443924 45.298960 2.942648 0 0 0
123 1 1 0.000000 29.179387 12.035558 31.200812 0 0 0
124 1 1 0.000000 43.019823 22.429442 9.577348 0 0 0
125 1 1 0.000000 3.295536 18.179094 38.281044 0 0 0
126 1 1 0.000000 32.296641 23.584220 39.709118 0 0 0
127 1 1 0.000000 2.066890 47.404621 41.707229 0 0 0
128 1 1 0.000000 6.464982 37.428161 23.454598 0 0 0
129 1 1 0.000000 4.739980 11.767219 10.475231 0 0 0
130 1 1 0.000000 46.767682 8.591888 10.898772 0 0 0
131 1 1 0.000000 21.801455 44.892158 32.127779 0 0 0
132 1 1 0.000000 25.489549 13.137875 41.953032 0 0 0
133 1 1 0.000000 25.409672 20.658919 12.127182 0 0 0
134 1 1 0.000000 9.602492 25.410291 5.110367 0 0 0
135 1 1 0.000000 13.181064 22.439190 10.730541 0 0 0
136 1 1 0.000000 12.836317 17.087367 15.535656 0 0 0
137 1 1 0.000000 34.679314 1.021331 17.391521 0 0 0
138 1 1 0.000000 8.641804 39.300571 9.401804 0 0 0
139 1 1 0.000000 27.423764 46.469853 22.471443 0 0 0
140 1 1 0.000000 16.107589 36.613506 20.632090 0 0 0
141 1 1 0.000000 43.067746 14.811936 34.042619 0 0 0
142 1 1 0.000000 36.006513 14.598440 32.062371 0 0 0
143 1 1 0.000000 4.157130 2.679432 37.573148 0 0 0
144 1 1 0.000000 30.846266 19.625819 7.397966 0 0 0
145 1 1 0.000000 41.533459 0.481917 47.779457 0 0 0
146 1 1 0.000000 40.808180 43.885257 44.772159 0 0 0
147 1 1 0.000000 5.866550 16.405575 31.081678 0 0 0
148 1 1 0.000000 47.859492 20.033511 0.146308 0 -1 0
149 1 1 0.000000 46.042265 32.800655 39.180332 0 0 0
150 1 1 0.000000 10.594036 32.566810 5.401727 0 0 0
151 1 1 0.000000 16.453885 23.519742 43.681440 0 0 0
152 1 1 0.000000 27.696102 1.708828 35.813556 0 0 0
153 1 1 0.000000 31.498367 24.484449 47.073990 0 0 0
154 1 1 0.000000 48.466638 42.864477 45.601068 0 0 0
155 1 1 0.000000 5.025263 45.833556 48.164587 0 0 -1
156 1 1 0.000000 8.431394 1.488844 45.913817 0 0 0
157 1 1 0.000000 43.645411 1.693409 33.288533 0 0 0
158 1 1 0.000000 25.596899 20.277356 18.918957 0 0 0
159 1 1 0.000000 9.942598 9.002364 5.261830 0 0 0
160 1 1 0.000000 14.411138 46.908544 33.700609 0 0 0
161 1 1 0.000000 36.308748 8.020011 35.389386 0 0 0
162 1 1 0.000000 16.759034 37.895866 39.009053 0 0 0
163 1 1 0.000000 25.186917 34.720459 6.223060 0 0 0
164 1 1 0.000000 34.147179 17.561149 45.288195 0 0 0
165 1 1 0.000000 9.943480 35.999750 41.390533 0 0 0
166 1 1 0.000000 17.651546 7.313553 26.303156 0 0 0
167 1 1 0.000000 16.671446 46.619566 21.705910 0 0 0
168 1 1 0.000000 23.131068 40.471975 24.120606 0 0 0
169 1 1 0.000000 48.154270 15.959396 11.599202 0 0 0
170 1 1 0.000000 10.766594 42.856223 1.328601 0 0 0
171 1 1 0.000000 38.267481 18.176973 38.884602 0 0 0
172 1 1 0.000000 37.875103 38.098429 25.917086 0 0 0
173 1 1 0.000000 41.571103 22.629651 46.448169 0 0 0
174 1 1 0.000000 34.832501 48.039775 6.543187 0 0 0
175 1 1 0.000000 49.855080 28.792360 25.375016 0 0 0
176 1 1 0.000000 24.146716 34.990292 39.356382 0 0 0
177 1 1 0.000000 34.785615 44.072876 20.823822 0 0 0
178 1 1 0.000000 23.718937 27.307650 2.011371 0 0 0
179 1 1 0.000000 29.131332 29.878820 37.082045 0 0 0
180 1 1 0.000000 5.144360 19.943893 12.323533 0 0 0
181 1 1 0.000000 32.559683 38.473840 40.511339 0 0 0
182 1 1 0.000000 19.253548 38.099066 30.430519 0 0 0
183 1 1 0.000000 32.881005 34.390159 18.977623 0 0 0
184 1 1 0.000000 12.027696 1.720152 19.056126 0 0 0
185 1 1 0.000000 38.840183 14.346115 18.283373 0 0 0
186 1 1 0.000000 16.933926 13.187848 19.777675 0 0 0
187 1 1 0.000000 4.951897 26.239574 34.399750 0 0 0

Bonds

1 1 12 45
2 1 57 180
3 1 99 113
4 1 4 59
5 1 17 91
6 1 21 133
7 1 75 185
8 1 7 66
9 1 144 173
10 1 90 184
11 1 5 80
12 1 63 142
13 1 24 122
14 1 31 130
15 1 20 129
16 1 78 187
17 1 49 155
18 1 15 49
19 1 125 173
20 1 60 138
21 1 120 163
22 1 2 187
23 1 24 66
24 1 111 177
25 1 76 100
26 1 83 146
27 1 7 45
28 1 110 168
29 1 11 15
30 1 84 97
31 1 34 85
32 1 105 128
33 1 82 183
34 1 181 187
35 1 107 182
36 1 134 173
37 1 47 56
38 1 14 160
39 1 51 80
40 1 21 74
41 1 63 152
42 1 57 134
43 1 3 98
44 1 57 88
45 1 49 62
46 1 99 101
47 1 76 110
48 1 22 86
49 1 45 65
50 1 17 106
51 1 151 162
52 1 33 103
53 1 84 117
54 1 90 99
55 1 34 73
56 1 63 86
57 1 10 177
58 1 105 170
59 1 124 148
60 1 60 134
61 1 23 154
62 1 150 156
63 1 56 158
64 1 43 176
65 1 4 46
66 1 97 164
67 1 8 75
68 1 83 109
69 1 31 42
70 1 26 111
71 1 69 77
72 1 84 141
73 1 23 38
74 1 142 146
75 1 136 166
76 1 8 70
77 1 15 30
78 1 3 158
79 1 31 184
80 1 95 171
81 1 76 169
82 1 114 117
83 1 8 160
84 1 6 177
85 1 11 162
86 1 170 184
87 1 16 91
88 1 85 90
89 1 116 141
90 1 70 89
91 1 9 161
92 1 26 125
93 1 143 160
94 1 67 101
95 1 41 143
96 1 114 116
97 1 126 179
98 1 12 44
99 1 12 64
100 1 108 163
101 1 22 123
102 1 18 168
103 1 19 44
104 1 22 130
105 1 141 147
106 1 18 29
107 1 66 139
108 1 85 123
109 1 95 165
110 1 87 89
111 1 110 179
112 1 143 167
113 1 27 142
114 1 33 139
115 1 38 44
116 1 96 178
117 1 48 138
118 1 41 47
119 1 168 176
120 1 140 163
121 1 42 64
122 1 2 96
123 1 16 61
124 1 27 137
125 1 48 113
126 1 131 171
127 1 18 127
128 1 148 151
129 1 2 91
130 1 54 74
131 1 98 135
132 1 28 93
133 1 61 130
134 1 20 169
135 1 50 156
136 1 78 92
137 1 32 178
138 1 111 171
139 1 62 108
140 1 55 80
141 1 69 161
142 1 55 122
143 1 61 116
144 1 29 136
145 1 121 122
146 1 33 176
147 1 5 32
148 1 4 102
149 1 145 180
150 1 96 123
151 1 19 115
152 1 37 127
153 1 10 115
154 1 92 135
155 1 13 133
156 1 35 172
157 1 121 186
158 1 101 124
159 1 88 156
160 1 26 46
161 1 41 181
162 1 16 147
163 1 35 113
164 1 62 132
165 1 1 131
166 1 64 97
167 1 65 128
168 1 86 185
169 1 106 170
170 1 67 95
171 1 47 152
172 1 102 149
173 1 46 148
174 1 1 52
175 1 145 161
176 1 55 174
177 1 69 140
178 1 65 118
179 1 87 114
180 1 29 129
181 1 10 144
182 1 20 180
183 1 40 98
184 1 155 169
185 1 129 158
186 1 27 32
187 1 94 144
188 1 17 149
189 1 81 132
190 1 103 149
191 1 25 75
192 1 24 78
193 1 60 89
194 1 104 124
195 1 52 131
196 1 59 100
197 1 50 115
198 1 7 40
199 1 52 88
200 1 50 181
201 1 25 107
202 1 108 164
203 1 6 138
204 1 112 165
205 1 179 186
206 1 121 159
207 1 54 120
208 1 94 119
209 1 100 136
210 1 25 159
211 1 133 178
212 1 6 127
213 1 93 117
214 1 13 118
215 1 48 103
216 1 81 162
217 1 102 154
218 1 59 82
219 1 11 147
220 1 14 150
221 1 19 146
222 1 125 186
223 1 72 104
224 1 106 109
225 1 105 107
226 1 70 83
227 1 79 150
228 1 74 81
229 1 73 166
230 1 42 93
231 1 9 185
232 1 39 72
233 1 56 153
234 1 9 109
235 1 53 79
236 1 73 140
237 1 28 34
238 1 87 137
239 1 157 175
240 1 39 92
241 1 5 137
242 1 36 38
243 1 39 53
244 1 40 68
245 1 120 155
246 1 118 157
247 1 94 139
248 1 72 182
249 1 13 37
250 1 1 152
251 1 67 182
252 1 3 77
253 1 51 183
254 1 54 165
255 1 135 153
256 1 23 126
257 1 30 77
258 1 37 58
259 1 30 79
260 1 157 164
261 1 175 183
262 1 126 153
263 1 43 104
264 1 159 166
265 1 35 51
266 1 43 58

