Generated by ZY code

96 atoms
1 atom types
136 bonds
1 bond types
0 angles
0 angle types
0 dihedrals
0 dihedral types
0 impropers
0 improper types

0.0000000000000000 40.0000000000000000 xlo xhi
0.0000000000000000 40.0000000000000000 ylo yhi
0.0000000000000000 40.0000000000000000 zlo zhi

Masses

1 1.000

Atoms # full

1 1 1 0.000000 5.468542 23.772223 19.377479 0 0 0
2 1 1 0.000000 37.650452 7.168618 0.604177 0 0 0
3 1 1 0.000000 28.772553 5.072275 36.938002 0 0 0
4 1 1 0.000000 1.093674 1.035156 4.511147 0 0 0
5 1 1 0.000000 17.372992 4.437947 19.589360 0 0 0
6 1 1 0.000000 39.025796 13.708536 19.254966 0 0 0
7 1 1 0.000000 34.487157 0.515511 39.216258 0 0 0
8 1 1 0.000000 17.467735 19.389918 23.647894 0 0 0
9 1 1 0.000000 35.655287 16.030815 25.147844 0 0 0
10 1 1 0.000000 1.463430 26.749053 24.576354 0 1 0
11 1 1 0.000000 26.323238 16.533424 34.174662 0 0 0
12 1 1 0.000000 10.451892 28.299143 25.034736 0 0 0
13 1 1 0.000000 39.431281 36.939585 16.421658 0 0 0
14 1 1 0.000000 10.297928 14.105544 5.219789 0 0 0
15 1 1 0.000000 36.937221 10.141750 7.530230 0 0 0
16 1 1 0.000000 26.570320 34.353884 0.790226 0 0 1
17 1 1 0.000000 12.979461 23.074620 19.009733 0 0 0
18 1 1 0.000000 13.625243 19.557984 37.992932 0 0 0
19 1 1 0.000000 33.504937 22.625297 12.510758 0 0 0
20 1 1 0.000000 31.344503 35.008829 35.521974 0 0 0
21 1 1 0.000000 1.723157 23.253794 13.140616 0 0 0
22 1 1 0.000000 3.833466 34.890843 23.512302 0 0 0
23 1 1 0.000000 35.401481 9.036440 15.331256 0 0 0
24 1 1 0.000000 21.261105 25.529999 12.461983 0 0 0
25 1 1 0.000000 18.886359 25.534505 5.099382 0 0 0
26 1 1 0.000000 5.561578 12.687573 21.907242 0 0 0
27 1 1 0.000000 37.844745 22.708884 38.029751 0 0 0
28 1 1 0.000000 20.216251 17.884597 3.900807 0 0 0
29 1 1 0.000000 37.598594 31.172523 35.555453 0 0 0
30 1 1 0.000000 24.866693 26.962360 0.818633 0 0 0
31 1 1 0.000000 34.285571 8.564907 32.910467 0 0 0
32 1 1 0.000000 3.956007 39.861138 11.231208 0 0 0
33 1 1 0.000000 37.436097 15.438496 39.807084 0 0 0
34 1 1 0.000000 19.951746 23.303898 36.117693 0 0 0
35 1 1 0.000000 19.204405 10.377321 31.393833 0 0 0
36 1 1 0.000000 26.785774 2.997849 25.441964 0 0 0
37 1 1 0.000000 10.716243 34.755299 29.128144 0 0 0
38 1 1 0.000000 28.212421 28.892475 14.291913 0 0 0
39 1 1 0.000000 9.315358 19.308708 24.971843 0 0 0
40 1 1 0.000000 29.297241 9.053944 19.639604 0 0 0
41 1 1 0.000000 2.080054 18.809070 24.161794 0 0 0
42 1 1 0.000000 29.209313 16.213098 21.462568 0 0 0
43 1 1 0.000000 23.447582 36.975249 16.679776 0 0 0
44 1 1 0.000000 15.575627 17.399261 30.355656 0 0 0
45 1 1 0.000000 14.885704 12.427642 0.051750 0 0 1
46 1 1 0.000000 34.167648 34.545364 4.169752 0 0 0
47 1 1 0.000000 26.517565 19.670456 12.142701 0 0 0
48 1 1 0.000000 38.625968 17.820925 8.800701 0 0 0
49 1 1 0.000000 35.563297 22.671959 21.453111 0 0 0
50 1 1 0.000000 11.906743 0.634487 17.079171 1 0 0
51 1 1 0.000000 5.038146 27.113096 35.979148 0 0 0
52 1 1 0.000000 21.282113 18.282373 17.448130 0 0 0
53 1 1 0.000000 29.493550 39.850837 10.185649 0 0 0
54 1 1 0.000000 6.323453 19.708059 37.739148 0 0 0
55 1 1 0.000000 11.462857 24.648844 4.876212 0 0 0
56 1 1 0.000000 5.446155 16.563295 10.812281 0 0 0
57 1 1 0.000000 13.183433 5.881965 37.795469 0 0 0
58 1 1 0.000000 34.466054 34.090202 11.636045 0 0 0
59 1 1 0.000000 11.727319 25.173235 32.677251 0 0 0
60 1 1 0.000000 20.705082 8.586107 11.361666 0 0 0
61 1 1 0.000000 2.992397 7.266426 16.777199 0 0 0
62 1 1 0.000000 19.469009 33.156126 2.008700 0 0 0
63 1 1 0.000000 3.690794 13.284374 2.251963 0 0 0
64 1 1 0.000000 24.617999 4.480506 16.321808 0 0 0
65 1 1 0.000000 7.920870 4.266348 32.931528 0 0 0
66 1 1 0.000000 2.452938 31.800771 30.128495 0 0 0
67 1 1 0.000000 10.754614 28.219490 11.860851 0 0 0
68 1 1 0.000000 37.590590 27.933728 4.884577 0 0 0
69 1 1 0.000000 36.405642 2.626224 11.904439 0 0 0
70 1 1 0.000000 21.654276 9.510170 1.618283 0 0 0
71 1 1 0.000000 26.971695 20.757419 4.717092 0 0 0
72 1 1 0.000000 22.250666 8.531398 23.008734 0 0 0
73 1 1 0.000000 1.519618 19.909260 31.469688 0 0 0
74 1 1 0.000000 17.205049 37.742015 12.766816 0 0 0
75 1 1 0.000000 35.991926 24.382212 29.108702 0 0 0
76 1 1 0.000000 24.001037 31.717043 8.383410 0 0 0
77 1 1 0.000000 9.780663 35.430525 12.642205 0 0 0
78 1 1 0.000000 8.476489 17.373799 17.173117 0 0 0
79 1 1 0.000000 3.140950 0.648885 37.342345 0 0 0
80 1 1 0.000000 4.727590 27.229329 7.576596 0 0 0
81 1 1 0.000000 10.038971 11.867444 27.627422 0 0 0
82 1 1 0.000000 9.126800 39.616371 5.402189 0 0 0
83 1 1 0.000000 23.270725 15.095417 25.983938 0 0 0
84 1 1 0.000000 31.320605 29.872368 30.440387 0 0 0
85 1 1 0.000000 6.154785 6.393653 2.312140 0 1 1
86 1 1 0.000000 24.876194 29.187955 25.469548 0 0 0
87 1 1 0.000000 30.865972 12.979348 38.513303 0 0 0
88 1 1 0.000000 9.582149 39.676439 23.850303 0 0 0
89 1 1 0.000000 30.597031 13.853226 29.322980 0 0 0
90 1 1 0.000000 19.836659 15.775380 36.355487 0 0 0
91 1 1 0.000000 13.989115 13.473530 20.186486 0 0 0
92 1 1 0.000000 9.425608 6.662186 21.436186 0 0 0
93 1 1 0.000000 16.530780 5.031181 27.079359 0 0 0
94 1 1 0.000000 34.109023 21.370709 4.421682 0 0 0
95 1 1 0.000000 16.424123 31.651967 8.755782 0 0 0
96 1 1 0.000000 28.036690 23.153793 31.145494 0 0 0

Bonds

1 1 35 83
2 1 49 50
3 1 20 83
4 1 19 28
5 1 13 23
6 1 67 73
7 1 10 91
8 1 61 72
9 1 18 25
10 1 32 55
11 1 74 77
12 1 39 52
13 1 44 47
14 1 47 71
15 1 63 71
16 1 9 62
17 1 45 88
18 1 49 88
19 1 13 68
20 1 37 83
21 1 54 74
22 1 52 61
23 1 26 91
24 1 21 22
25 1 33 52
26 1 54 77
27 1 28 61
28 1 66 67
29 1 25 32
30 1 15 16
31 1 2 81
32 1 63 73
33 1 8 54
34 1 58 65
35 1 31 82
36 1 53 74
37 1 67 68
38 1 17 37
39 1 7 58
40 1 65 93
41 1 5 10
42 1 72 88
43 1 60 76
44 1 19 29
45 1 43 64
46 1 24 48
47 1 45 47
48 1 30 48
49 1 27 51
50 1 9 68
51 1 3 75
52 1 6 48
53 1 23 64
54 1 12 95
55 1 5 79
56 1 25 59
57 1 57 65
58 1 51 59
59 1 11 72
60 1 1 4
61 1 22 76
62 1 21 46
63 1 7 23
64 1 11 34
65 1 11 12
66 1 71 86
67 1 8 12
68 1 40 56
69 1 31 90
70 1 75 89
71 1 2 79
72 1 22 85
73 1 59 70
74 1 28 95
75 1 33 90
76 1 34 38
77 1 41 50
78 1 9 27
79 1 19 70
80 1 78 89
81 1 45 51
82 1 70 95
83 1 2 87
84 1 42 50
85 1 24 69
86 1 24 30
87 1 14 34
88 1 13 82
89 1 86 91
90 1 8 18
91 1 49 77
92 1 4 38
93 1 36 38
94 1 14 18
95 1 21 80
96 1 46 60
97 1 56 57
98 1 39 78
99 1 6 39
100 1 10 94
101 1 37 55
102 1 15 80
103 1 73 84
104 1 5 84
105 1 44 75
106 1 27 96
107 1 17 29
108 1 42 87
109 1 1 41
110 1 40 53
111 1 15 69
112 1 42 60
113 1 31 40
114 1 1 76
115 1 3 87
116 1 44 96
117 1 6 84
118 1 79 92
119 1 32 82
120 1 16 46
121 1 26 89
122 1 58 96
123 1 35 85
124 1 62 81
125 1 4 86
126 1 43 62
127 1 56 94
128 1 14 81
129 1 64 85
130 1 16 30
131 1 55 80
132 1 53 92
133 1 20 57
134 1 20 66
135 1 36 93
136 1 17 41

