Generated by ZY code

96 atoms
1 atom types
136 bonds
1 bond types
0 angles
0 angle types
0 dihedrals
0 dihedral types
0 impropers
0 improper types

0.0000000000000000 40.0000000000000000 xlo xhi
0.0000000000000000 40.0000000000000000 ylo yhi
0.0000000000000000 40.0000000000000000 zlo zhi

Masses

1 1.000

Atoms # full

1 1 1 0.000000 25.041949 6.708921 35.998236 0 0 0
2 1 1 0.000000 18.998611 8.203297 22.592124 0 0 0
3 1 1 0.000000 23.082497 23.294362 13.027755 0 0 0
4 1 1 0.000000 35.602534 1.977682 23.876674 0 0 0
5 1 1 0.000000 32.645103 36.847374 16.566798 0 0 0
6 1 1 0.000000 11.908646 18.579852 32.249604 0 0 -1
7 1 1 0.000000 30.206773 20.418901 16.932058 0 0 0
8 1 1 0.000000 24.786552 21.812891 31.654065 0 0 0
9 1 1 0.000000 0.825244 32.267733 3.969690 0 1 0
10 1 1 0.000000 28.784940 34.282616 38.084082 0 0 0
11 1 1 0.000000 17.842554 25.787387 35.621742 0 0 0
12 1 1 0.000000 23.375982 14.409162 19.199757 0 0 0
13 1 1 0.000000 31.939608 3.088296 5.057676 0 0 0
14 1 1 0.000000 8.301721 21.458467 14.655742 0 0 0
15 1 1 0.000000 5.768952 15.131451 8.595434 0 0 0
16 1 1 0.000000 31.859908 28.973470 22.304321 0 0 0
17 1 1 0.000000 25.131354 13.520905 27.827162 0 0 0
18 1 1 0.000000 25.386026 26.055644 2.749846 0 0 1
19 1 1 0.000000 8.808150 28.889798 20.268397 0 0 0
20 1 1 0.000000 33.262531 12.100762 31.240491 0 0 -1
21 1 1 0.000000 1.784161 10.151948 27.491790 0 0 0
22 1 1 0.000000 5.000597 18.038024 39.911383 0 0 0
23 1 1 0.000000 0.646979 24.955348 36.278232 0 0 0
24 1 1 0.000000 9.198317 30.281492 9.225193 0 0 0
25 1 1 0.000000 13.524267 36.051950 22.707236 0 0 0
26 1 1 0.000000 6.261646 5.311117 11.183780 0 0 0
27 1 1 0.000000 0.892427 18.081565 30.891029 0 0 0
28 1 1 0.000000 16.355135 26.066089 17.457643 0 0 0
29 1 1 0.000000 37.846499 9.039210 16.079463 0 0 0
30 1 1 0.000000 9.899337 3.281781 27.653257 0 0 0
31 1 1 0.000000 21.111120 32.731737 7.511356 0 0 0
32 1 1 0.000000 23.462743 8.537299 4.680125 0 0 0
33 1 1 0.000000 37.145275 17.744665 12.712483 0 0 0
34 1 1 0.000000 16.304689 18.601193 24.332124 0 0 0
35 1 1 0.000000 37.279387 17.521807 4.135906 0 -1 0
36 1 1 0.000000 38.178148 8.953688 7.127073 0 0 0
37 1 1 0.000000 9.421334 25.348113 0.804128 0 0 0
38 1 1 0.000000 7.321032 21.091171 24.988520 -1 0 0
39 1 1 0.000000 25.533485 0.845640 11.441222 0 0 0
40 1 1 0.000000 30.650901 11.626464 0.569838 0 0 0
41 1 1 0.000000 14.648308 33.120235 0.705493 0 0 0
42 1 1 0.000000 0.491342 24.597280 18.492251 0 0 0
43 1 1 0.000000 38.674441 39.294884 9.750095 -1 0 0
44 1 1 0.000000 8.297071 10.653411 34.382162 0 0 -1
45 1 1 0.000000 9.388141 1.904232 37.034394 0 0 -1
46 1 1 0.000000 29.537922 33.883946 6.886758 0 0 1
47 1 1 0.000000 1.413016 31.551932 13.021757 0 1 0
48 1 1 0.000000 29.772924 10.566559 11.000804 0 0 0
49 1 1 0.000000 2.054862 24.001454 8.304698 0 0 0
50 1 1 0.000000 19.965637 1.254291 29.624441 1 0 0
51 1 1 0.000000 16.422886 7.838697 39.629774 0 0 -1
52 1 1 0.000000 6.143916 8.672608 2.803053 0 0 0
53 1 1 0.000000 0.937434 1.945472 0.574358 0 1 1
54 1 1 0.000000 16.867164 1.296748 7.252916 0 0 0
55 1 1 0.000000 27.611042 5.473863 18.428749 0 0 0
56 1 1 0.000000 33.619426 27.559195 1.917724 0 0 0
57 1 1 0.000000 6.772477 12.674723 16.663161 0 1 0
58 1 1 0.000000 16.205607 24.308006 6.897819 0 0 0
59 1 1 0.000000 14.318252 16.646215 1.200849 0 0 1
60 1 1 0.000000 5.941417 34.374636 27.269370 0 0 0
61 1 1 0.000000 13.935517 35.141011 31.800506 0 0 0
62 1 1 0.000000 32.664086 20.289943 35.628044 0 0 0
63 1 1 0.000000 34.102157 26.786144 11.322457 0 0 0
64 1 1 0.000000 7.404300 38.373420 6.384530 0 0 0
65 1 1 0.000000 22.155524 38.147932 21.511360 0 0 0
66 1 1 0.000000 33.290458 2.630304 34.230817 1 0 0
67 1 1 0.000000 20.818966 16.265740 7.347967 0 0 1
68 1 1 0.000000 10.527608 12.532748 24.686021 0 0 0
69 1 1 0.000000 13.175451 10.235070 7.939946 0 0 0
70 1 1 0.000000 15.775901 16.107289 15.703354 0 0 0
71 1 1 0.000000 28.121247 5.474074 27.121350 0 0 0
72 1 1 0.000000 33.108158 20.919312 26.114642 0 0 0
73 1 1 0.000000 4.233579 4.868320 21.071120 0 0 0
74 1 1 0.000000 6.094111 33.177624 36.993372 0 0 -1
75 1 1 0.000000 23.496344 25.593547 23.351466 0 0 0
76 1 1 0.000000 38.164981 34.441763 33.216022 0 -1 0
77 1 1 0.000000 0.352015 27.665887 26.724883 0 1 0
78 1 1 0.000000 25.301522 31.879393 15.429445 0 0 0
79 1 1 0.000000 17.343715 9.527359 31.186572 1 0 0
80 1 1 0.000000 22.449360 15.547466 37.540683 0 0 -1
81 1 1 0.000000 15.214299 27.990561 26.498501 0 0 0
82 1 1 0.000000 8.231189 26.351363 31.323446 0 0 0
83 1 1 0.000000 31.215931 28.551605 31.428556 0 0 0
84 1 1 0.000000 29.086770 19.220856 6.521205 0 0 0
85 1 1 0.000000 20.752853 39.143171 38.832753 -1 0 -1
86 1 1 0.000000 13.260729 3.479606 16.801388 1 0 0
87 1 1 0.000000 39.553142 10.784844 36.964339 0 0 -1
88 1 1 0.000000 16.355862 35.564793 13.969057 0 0 0
89 1 1 0.000000 32.210936 13.488642 21.400565 0 0 0
90 1 1 0.000000 1.388480 2.702775 31.243238 0 1 0
91 1 1 0.000000 28.655508 37.170856 27.597049 -1 -1 0
92 1 1 0.000000 7.693096 36.990284 15.885261 -1 0 0
93 1 1 0.000000 0.216127 16.108857 20.722942 0 0 0
94 1 1 0.000000 20.170357 7.635740 12.806275 0 0 0
95 1 1 0.000000 39.830382 34.480847 21.509856 -1 -1 0
96 1 1 0.000000 22.769433 31.779243 31.723369 0 0 0

Bonds

1 1 16 38
2 1 42 76
3 1 43 64
4 1 25 28
5 1 40 67
6 1 83 85
7 1 44 83
8 1 58 84
9 1 36 80
10 1 64 69
11 1 29 61
12 1 5 91
13 1 30 93
14 1 24 37
15 1 54 64
16 1 60 70
17 1 21 87
18 1 11 18
19 1 25 39
20 1 42 43
21 1 15 90
22 1 39 45
23 1 24 44
24 1 44 77
25 1 41 54
26 1 29 95
27 1 19 73
28 1 28 96
29 1 29 48
30 1 17 23
31 1 22 37
32 1 50 70
33 1 16 39
34 1 41 91
35 1 41 83
36 1 28 89
37 1 3 94
38 1 51 88
39 1 53 92
40 1 14 34
41 1 61 75
42 1 47 56
43 1 72 78
44 1 57 95
45 1 46 69
46 1 7 49
47 1 12 68
48 1 77 92
49 1 11 19
50 1 19 76
51 1 37 77
52 1 69 70
53 1 11 15
54 1 3 43
55 1 1 14
56 1 65 91
57 1 56 87
58 1 53 55
59 1 3 61
60 1 52 57
61 1 4 25
62 1 15 56
63 1 33 49
64 1 88 93
65 1 32 89
66 1 50 68
67 1 74 79
68 1 4 63
69 1 74 76
70 1 20 52
71 1 42 71
72 1 58 67
73 1 20 21
74 1 2 96
75 1 20 38
76 1 21 60
77 1 54 74
78 1 17 72
79 1 2 31
80 1 10 63
81 1 10 78
82 1 6 62
83 1 17 80
84 1 85 96
85 1 62 78
86 1 9 72
87 1 36 53
88 1 49 68
89 1 84 87
90 1 16 85
91 1 55 95
92 1 57 63
93 1 32 48
94 1 40 88
95 1 52 79
96 1 6 51
97 1 5 65
98 1 24 75
99 1 8 33
100 1 13 84
101 1 82 89
102 1 23 82
103 1 51 65
104 1 13 26
105 1 73 80
106 1 10 59
107 1 9 30
108 1 58 93
109 1 32 40
110 1 18 79
111 1 26 45
112 1 73 92
113 1 13 60
114 1 27 62
115 1 22 81
116 1 75 94
117 1 34 82
118 1 34 36
119 1 4 26
120 1 1 59
121 1 81 86
122 1 22 45
123 1 47 59
124 1 7 71
125 1 2 8
126 1 55 71
127 1 47 86
128 1 38 90
129 1 50 86
130 1 5 8
131 1 48 94
132 1 14 81
133 1 18 67
134 1 6 30
135 1 7 35
136 1 1 66

