Generated by ZY code

96 atoms
1 atom types
136 bonds
1 bond types
0 angles
0 angle types
0 dihedrals
0 dihedral types
0 impropers
0 improper types

0.0000000000000000 40.0000000000000000 xlo xhi
0.0000000000000000 40.0000000000000000 ylo yhi
0.0000000000000000 40.0000000000000000 zlo zhi

Masses

1 1.000

Atoms # full

1 1 1 0.000000 11.601587 9.767859 12.740575 0 0 0
2 1 1 0.000000 38.177906 28.532834 14.094870 0 0 0
3 1 1 0.000000 27.906242 30.167264 15.644801 0 0 0
4 1 1 0.000000 36.693240 5.859705 16.185550 0 0 0
5 1 1 0.000000 8.054508 11.270006 2.511178 0 0 0
6 1 1 0.000000 15.873822 37.037037 2.125283 -1 0 0
7 1 1 0.000000 23.024569 15.588874 31.278468 0 0 0
8 1 1 0.000000 5.054072 1.547164 18.847783 0 0 0
9 1 1 0.000000 7.736730 30.415973 29.050895 0 0 0
10 1 1 0.000000 25.412605 10.851762 9.601805 0 0 0
11 1 1 0.000000 33.715564 13.787318 14.345042 0 0 0
12 1 1 0.000000 16.858057 39.791393 27.028789 0 0 0
13 1 1 0.000000 39.909940 36.402632 34.788195 0 -1 0
14 1 1 0.000000 6.132924 3.188685 9.659051 0 0 0
15 1 1 0.000000 20.393024 21.302292 22.978842 0 0 0
16 1 1 0.000000 6.728714 29.125095 38.170876 0 0 -1
17 1 1 0.000000 10.854505 27.824943 14.246150 0 0 0
18 1 1 0.000000 9.832289 9.029355 21.016151 0 0 0
19 1 1 0.000000 7.374552 38.960197 27.751028 -1 0 0
20 1 1 0.000000 5.840663 22.537827 31.715497 0 0 0
21 1 1 0.000000 24.795587 33.920371 1.367802 0 0 0
22 1 1 0.000000 33.248660 15.139062 5.950501 0 0 0
23 1 1 0.000000 9.644246 3.388651 37.845375 0 0 0
24 1 1 0.000000 21.521081 33.633754 9.286442 0 0 0
25 1 1 0.000000 29.485166 21.398957 27.993992 0 0 0
26 1 1 0.000000 1.752203 12.886490 18.398432 0 0 0
27 1 1 0.000000 19.325122 19.940625 0.805275 0 0 0
28 1 1 0.000000 38.234169 5.479733 33.444793 1 -1 0
29 1 1 0.000000 14.438780 12.882339 36.387261 0 0 0
30 1 1 0.000000 13.519055 25.570669 5.771450 0 0 0
31 1 1 0.000000 18.862918 4.827631 35.320714 0 0 0
32 1 1 0.000000 38.146037 37.512339 7.919286 0 0 0
33 1 1 0.000000 20.870345 3.062466 11.510942 0 0 0
34 1 1 0.000000 32.914617 38.381552 0.804889 0 0 0
35 1 1 0.000000 23.938439 18.066309 14.518572 0 0 0
36 1 1 0.000000 3.085011 31.657955 21.304973 0 0 0
37 1 1 0.000000 30.307282 21.943644 10.262996 0 0 0
38 1 1 0.000000 24.238728 25.582270 33.966016 0 0 0
39 1 1 0.000000 11.939109 33.734789 21.485932 0 0 0
40 1 1 0.000000 36.857787 19.467625 33.323607 0 -1 0
41 1 1 0.000000 19.444968 9.843716 16.660527 0 0 0
42 1 1 0.000000 33.337485 22.523415 18.639710 0 0 0
43 1 1 0.000000 22.052783 11.843863 1.040226 0 0 1
44 1 1 0.000000 4.674904 34.674118 13.385988 -1 0 0
45 1 1 0.000000 34.571746 29.757105 23.841676 0 0 0
46 1 1 0.000000 26.576361 14.610161 22.738870 0 0 0
47 1 1 0.000000 21.959859 24.226627 8.364304 0 0 0
48 1 1 0.000000 19.252935 28.828854 18.259762 0 0 0
49 1 1 0.000000 0.262968 2.773505 1.169511 0 1 0
50 1 1 0.000000 24.121310 3.873357 3.243213 0 0 1
51 1 1 0.000000 33.476775 6.513871 25.433257 0 0 0
52 1 1 0.000000 34.519974 36.490896 18.454549 0 0 0
53 1 1 0.000000 29.048393 39.587592 9.428407 0 0 0
54 1 1 0.000000 28.578022 2.498290 32.532041 0 0 0
55 1 1 0.000000 6.674868 36.441300 3.485370 0 0 0
56 1 1 0.000000 39.171081 12.069137 39.863841 0 -1 0
57 1 1 0.000000 38.294246 27.639508 31.365473 0 0 0
58 1 1 0.000000 32.090247 31.223686 8.499026 0 0 0
59 1 1 0.000000 34.397617 6.188366 6.911535 0 0 0
60 1 1 0.000000 15.940408 13.937662 26.589642 0 0 0
61 1 1 0.000000 0.894605 23.284316 23.653561 0 1 0
62 1 1 0.000000 36.650298 14.929477 25.763716 0 0 0
63 1 1 0.000000 12.650547 35.113803 34.853656 0 0 0
64 1 1 0.000000 17.274430 15.341764 8.896793 0 0 0
65 1 1 0.000000 14.651400 20.376715 32.935562 0 0 0
66 1 1 0.000000 30.621730 11.303197 31.652762 0 0 0
67 1 1 0.000000 13.296387 37.363375 10.473488 0 0 0
68 1 1 0.000000 6.398602 20.059414 17.130270 0 1 0
69 1 1 0.000000 28.729576 17.296195 38.225267 0 0 0
70 1 1 0.000000 11.869794 6.584450 29.404493 0 0 0
71 1 1 0.000000 31.497721 32.380604 33.791416 0 0 0
72 1 1 0.000000 22.368693 37.160294 18.305490 0 0 0
73 1 1 0.000000 22.538733 7.400073 25.902626 0 0 0
74 1 1 0.000000 15.197605 6.288480 4.512223 0 0 0
75 1 1 0.000000 7.401860 16.445443 24.911735 0 0 0
76 1 1 0.000000 25.775105 29.896427 25.091901 0 0 0
77 1 1 0.000000 14.887305 17.694163 17.665588 0 0 0
78 1 1 0.000000 39.224326 21.105103 2.952871 0 0 0
79 1 1 0.000000 27.637561 38.498851 24.913201 0 0 0
80 1 1 0.000000 1.433213 11.871869 8.585075 0 1 0
81 1 1 0.000000 2.768181 7.413016 26.040120 0 0 0
82 1 1 0.000000 17.347216 29.674913 27.771829 0 0 0
83 1 1 0.000000 3.996665 27.077181 7.690479 0 0 0
84 1 1 0.000000 9.164181 19.093160 9.401788 0 1 0
85 1 1 0.000000 14.387824 2.006536 18.159135 0 0 0
86 1 1 0.000000 28.855497 25.793770 1.559577 0 0 0
87 1 1 0.000000 30.652240 7.823881 39.380271 0 0 -1
88 1 1 0.000000 39.686201 20.490594 11.776815 0 0 0
89 1 1 0.000000 36.532509 29.598756 0.283306 0 0 1
90 1 1 0.000000 38.604692 39.210967 26.684423 0 0 0
91 1 1 0.000000 16.753055 28.093136 37.508432 0 0 0
92 1 1 0.000000 8.234288 20.099528 39.679442 0 0 -1
93 1 1 0.000000 5.774183 12.736056 32.902742 0 0 0
94 1 1 0.000000 22.615475 35.494690 32.423830 0 0 0
95 1 1 0.000000 11.769342 24.079359 23.423432 0 0 0
96 1 1 0.000000 28.268493 3.987936 16.995641 0 0 0

Bonds

1 1 35 47
2 1 50 82
3 1 41 95
4 1 28 32
5 1 51 52
6 1 54 58
7 1 75 87
8 1 34 39
9 1 9 55
10 1 30 48
11 1 15 74
12 1 62 84
13 1 40 80
14 1 4 8
15 1 30 57
16 1 14 87
17 1 52 87
18 1 45 67
19 1 40 75
20 1 45 90
21 1 11 28
22 1 39 62
23 1 59 90
24 1 20 84
25 1 29 65
26 1 13 45
27 1 47 68
28 1 53 73
29 1 17 78
30 1 48 90
31 1 15 54
32 1 21 30
33 1 33 56
34 1 6 70
35 1 57 79
36 1 7 68
37 1 11 89
38 1 1 94
39 1 71 89
40 1 62 68
41 1 65 89
42 1 41 48
43 1 18 71
44 1 84 91
45 1 14 65
46 1 7 20
47 1 54 78
48 1 37 49
49 1 26 81
50 1 44 61
51 1 86 96
52 1 21 64
53 1 26 58
54 1 25 78
55 1 46 52
56 1 8 57
57 1 42 77
58 1 14 26
59 1 20 66
60 1 86 91
61 1 58 95
62 1 27 47
63 1 81 82
64 1 16 55
65 1 38 77
66 1 7 44
67 1 22 96
68 1 16 50
69 1 13 51
70 1 13 95
71 1 27 43
72 1 4 51
73 1 76 85
74 1 21 60
75 1 23 70
76 1 92 93
77 1 1 40
78 1 6 23
79 1 39 72
80 1 8 53
81 1 6 73
82 1 1 42
83 1 27 29
84 1 32 42
85 1 37 86
86 1 44 91
87 1 67 93
88 1 56 60
89 1 12 73
90 1 32 85
91 1 61 94
92 1 81 85
93 1 4 94
94 1 3 11
95 1 12 96
96 1 43 72
97 1 70 77
98 1 34 61
99 1 16 37
100 1 9 31
101 1 41 59
102 1 3 72
103 1 49 93
104 1 5 24
105 1 17 67
106 1 5 36
107 1 19 80
108 1 3 82
109 1 50 53
110 1 38 88
111 1 12 71
112 1 35 43
113 1 9 17
114 1 28 80
115 1 25 88
116 1 56 76
117 1 46 79
118 1 25 60
119 1 55 83
120 1 24 83
121 1 10 74
122 1 5 46
123 1 23 36
124 1 66 79
125 1 18 31
126 1 36 76
127 1 64 83
128 1 18 74
129 1 19 34
130 1 15 35
131 1 10 29
132 1 19 31
133 1 22 38
134 1 2 88
135 1 66 75
136 1 10 22

