Generated by ZY code

187 atoms
1 atom types
266 bonds
1 bond types
0 angles
0 angle types
0 dihedrals
0 dihedral types
0 impropers
0 improper types

0.0000000000000000 50.0000000000000000 xlo xhi
0.0000000000000000 50.0000000000000000 ylo yhi
0.0000000000000000 50.0000000000000000 zlo zhi

Masses

1 1.000

Atoms # full

1 1 1 0.000000 23.682793 42.240017 22.906589 0 0 0
2 1 1 0.000000 6.677752 2.305373 26.687591 0 0 0
3 1 1 0.000000 48.882944 19.729622 38.649028 0 0 0
4 1 1 0.000000 29.582575 47.856372 12.197083 0 0 0
5 1 1 0.000000 15.613966 44.369119 26.328011 0 0 0
6 1 1 0.000000 20.200533 11.960704 32.227011 0 0 0
7 1 1 0.000000 34.688781 39.997922 24.452238 0 0 0
8 1 1 0.000000 35.871511 13.256041 4.789110 0 0 1
9 1 1 0.000000 7.059282 16.298812 3.276172 0 0 0
10 1 1 0.000000 29.850261 3.040477 49.243880 1 0 0
11 1 1 0.000000 40.548252 24.151906 34.956673 0 0 0
12 1 1 0.000000 18.853634 16.205555 48.625450 0 0 -1
13 1 1 0.000000 34.456921 49.494156 34.046488 -1 0 0
14 1 1 0.000000 13.774993 18.836357 29.420728 0 0 0
15 1 1 0.000000 42.959129 47.884774 37.058999 0 0 0
16 1 1 0.000000 12.601175 2.908072 47.611798 0 0 0
17 1 1 0.000000 45.319764 39.931204 41.906422 0 0 0
18 1 1 0.000000 36.313611 5.386739 27.325322 0 0 0
19 1 1 0.000000 22.515725 39.367061 31.933877 0 0 0
20 1 1 0.000000 22.179343 4.722534 35.792137 0 0 0
21 1 1 0.000000 17.843522 46.048145 40.929125 0 0 0
22 1 1 0.000000 6.847376 48.703019 3.366561 0 1 0
23 1 1 0.000000 36.826444 19.901822 41.919750 0 0 0
24 1 1 0.000000 22.579703 22.167200 32.666668 0 0 0
25 1 1 0.000000 41.732853 39.403732 1.344752 0 0 1
26 1 1 0.000000 34.650842 33.703498 31.674068 0 0 0
27 1 1 0.000000 35.135150 28.801909 11.283007 0 0 0
28 1 1 0.000000 17.034490 30.255839 6.336395 0 0 0
29 1 1 0.000000 10.703074 19.974699 45.689735 0 0 0
30 1 1 0.000000 29.454041 4.383563 18.280308 0 0 0
31 1 1 0.000000 11.383578 9.362393 19.943934 0 0 0
32 1 1 0.000000 31.447189 8.207352 37.153458 0 0 0
33 1 1 0.000000 0.746656 47.865839 42.300574 0 1 0
34 1 1 0.000000 32.815692 37.862046 47.779082 0 0 -1
35 1 1 0.000000 31.682551 32.878636 40.407557 0 0 0
36 1 1 0.000000 3.078751 25.194312 44.828978 0 1 0
37 1 1 0.000000 42.472137 48.222836 45.862199 0 0 0
38 1 1 0.000000 43.262685 13.676893 25.264609 0 0 0
39 1 1 0.000000 18.674009 39.535955 8.632631 0 0 0
40 1 1 0.000000 37.438516 15.861735 32.898883 0 0 0
41 1 1 0.000000 42.035737 16.307314 48.661610 0 0 0
42 1 1 0.000000 41.464651 31.918084 39.471293 0 0 0
43 1 1 0.000000 5.546521 17.194457 33.776394 0 0 0
44 1 1 0.000000 2.073420 33.822705 41.242530 0 1 0
45 1 1 0.000000 46.898564 5.425905 26.107506 0 0 0
46 1 1 0.000000 27.836607 25.907803 15.302171 0 0 0
47 1 1 0.000000 21.577624 0.426565 22.171651 0 0 0
48 1 1 0.000000 35.806271 23.235911 18.943948 0 0 0
49 1 1 0.000000 0.081274 46.536375 20.497137 0 1 0
50 1 1 0.000000 26.787945 40.533955 5.843787 0 0 0
51 1 1 0.000000 40.537418 47.628607 26.296484 0 0 0
52 1 1 0.000000 2.633282 36.792654 15.332248 0 0 0
53 1 1 0.000000 0.356265 44.683534 11.192971 0 1 0
54 1 1 0.000000 5.309840 29.576797 20.814308 0 0 0
55 1 1 0.000000 43.419327 35.137320 14.056683 0 0 0
56 1 1 0.000000 15.215771 40.924614 17.981979 0 0 0
57 1 1 0.000000 8.167739 17.174829 12.065088 0 0 0
58 1 1 0.000000 20.470140 14.698435 7.328843 0 0 0
59 1 1 0.000000 23.490770 30.767421 40.945041 0 0 0
60 1 1 0.000000 0.729024 39.117587 34.171870 0 1 0
61 1 1 0.000000 41.731831 20.453406 7.186419 0 0 0
62 1 1 0.000000 13.222168 33.318238 22.555051 0 0 0
63 1 1 0.000000 43.362951 31.039672 30.783617 0 0 0
64 1 1 0.000000 16.548053 16.192624 16.546011 0 0 0
65 1 1 0.000000 0.242172 3.766664 35.529606 0 1 0
66 1 1 0.000000 14.364884 16.720957 38.486676 0 0 0
67 1 1 0.000000 15.143912 47.419428 3.934329 -1 0 1
68 1 1 0.000000 31.404746 47.904888 25.430120 -1 0 0
69 1 1 0.000000 21.366727 6.351319 12.214974 0 0 0
70 1 1 0.000000 13.370138 8.596427 4.295385 0 0 0
71 1 1 0.000000 34.514074 45.281971 43.581181 0 0 0
72 1 1 0.000000 41.478583 22.280041 26.664656 0 0 0
73 1 1 0.000000 7.953316 45.062421 31.034348 0 0 0
74 1 1 0.000000 48.182214 37.386946 6.769366 0 0 1
75 1 1 0.000000 34.920052 36.816882 6.650588 0 0 0
76 1 1 0.000000 30.963335 41.483410 33.025730 0 0 0
77 1 1 0.000000 4.624650 10.497047 39.587216 0 0 0
78 1 1 0.000000 13.453306 2.128586 11.022836 0 0 0
79 1 1 0.000000 34.052827 11.617736 45.983478 0 0 0
80 1 1 0.000000 11.275683 25.703647 12.351595 0 0 0
81 1 1 0.000000 48.575710 12.642640 3.573734 0 0 0
82 1 1 0.000000 7.617029 41.687259 39.048192 0 0 0
83 1 1 0.000000 47.166923 6.264235 43.130111 0 0 0
84 1 1 0.000000 33.808619 39.767636 14.966301 0 0 0
85 1 1 0.000000 8.499231 18.390970 21.296584 0 0 0
86 1 1 0.000000 0.089108 22.316433 28.467245 0 1 0
87 1 1 0.000000 28.810083 16.781958 41.374427 0 0 0
88 1 1 0.000000 15.160139 5.325999 26.645973 0 0 0
89 1 1 0.000000 43.750042 24.650428 44.486017 0 0 0
90 1 1 0.000000 49.111215 18.520773 10.743921 0 0 0
91 1 1 0.000000 48.910290 47.261549 29.707618 0 0 0
92 1 1 0.000000 12.459637 49.878289 19.841945 -1 0 0
93 1 1 0.000000 15.267720 49.238698 33.267207 0 0 0
94 1 1 0.000000 7.870417 30.375230 4.467011 0 0 0
95 1 1 0.000000 34.551628 13.892987 24.450057 0 0 0
96 1 1 0.000000 14.184533 37.133766 30.860967 0 0 0
97 1 1 0.000000 26.061159 39.662631 40.323016 0 0 0
98 1 1 0.000000 36.360058 3.860826 42.686365 0 0 0
99 1 1 0.000000 17.251645 36.984954 38.936691 0 0 0
100 1 1 0.000000 42.391256 41.923491 19.662706 0 0 0
101 1 1 0.000000 20.965626 9.311500 20.826598 0 0 0
102 1 1 0.000000 43.762716 0.425963 14.153278 0 0 0
103 1 1 0.000000 42.745427 13.755378 40.332807 0 0 0
104 1 1 0.000000 8.584236 0.558839 39.409404 1 0 0
105 1 1 0.000000 38.663284 30.592471 48.225898 0 0 0
106 1 1 0.000000 1.190590 28.168949 34.360746 0 0 0
107 1 1 0.000000 28.684935 18.681805 20.354378 0 0 0
108 1 1 0.000000 33.617087 20.127797 10.172176 0 0 0
109 1 1 0.000000 35.184088 45.539393 2.319138 0 0 1
110 1 1 0.000000 20.793847 22.937874 11.411878 0 0 0
111 1 1 0.000000 34.335165 11.015127 13.163200 0 0 0
112 1 1 0.000000 41.419285 7.077603 49.907138 0 0 -1
113 1 1 0.000000 39.787285 7.356894 19.516042 0 0 0
114 1 1 0.000000 16.516847 26.843469 37.204449 0 0 0
115 1 1 0.000000 9.066871 11.139017 29.233121 0 0 0
116 1 1 0.000000 45.760750 47.365851 3.966287 0 0 0
117 1 1 0.000000 26.073427 13.383241 13.748977 0 0 0
118 1 1 0.000000 15.054974 24.256283 20.721011 0 0 0
119 1 1 0.000000 23.408008 24.088181 1.614637 0 0 0
120 1 1 0.000000 24.049278 25.791106 23.391320 0 0 0
121 1 1 0.000000 42.545652 8.936631 9.715064 0 0 0
122 1 1 0.000000 5.117091 3.660127 18.095700 0 0 0
123 1 1 0.000000 41.098211 30.161675 22.086750 0 0 0
124 1 1 0.000000 20.677621 3.436566 44.403518 0 0 0
125 1 1 0.000000 7.220839 41.759696 22.479395 0 0 0
126 1 1 0.000000 47.406438 32.095174 48.399279 0 0 0
127 1 1 0.000000 28.224151 16.039091 2.285709 0 0 1
128 1 1 0.000000 16.777518 28.215160 47.365931 0 0 -1
129 1 1 0.000000 28.561153 7.167496 7.450529 0 0 0
130 1 1 0.000000 6.947279 8.200056 10.803066 0 0 0
131 1 1 0.000000 49.123580 36.770495 23.625592 0 0 0
132 1 1 0.000000 30.431740 33.355785 20.291276 0 0 0
133 1 1 0.000000 11.010522 43.435000 46.729775 0 0 0
134 1 1 0.000000 0.012539 3.781671 7.963687 0 0 0
135 1 1 0.000000 28.897282 14.948089 31.498320 0 0 0
136 1 1 0.000000 26.256961 30.874526 31.781809 0 0 0
137 1 1 0.000000 26.955742 48.539792 40.658055 0 0 0
138 1 1 0.000000 11.329754 35.099046 12.998985 0 0 0
139 1 1 0.000000 23.967487 43.949340 47.705455 0 0 0
140 1 1 0.000000 14.388992 21.714602 4.182173 0 0 0
141 1 1 0.000000 26.881050 7.064878 26.893270 0 0 0
142 1 1 0.000000 21.312359 17.185455 25.194934 0 0 0
143 1 1 0.000000 43.102983 29.779520 6.163067 0 0 0
144 1 1 0.000000 25.244184 32.060198 8.899499 0 0 0
145 1 1 0.000000 24.795698 47.766803 30.948181 -1 0 0
146 1 1 0.000000 43.563292 25.372509 14.719070 0 0 0
147 1 1 0.000000 31.201173 23.756818 35.974930 0 0 0
148 1 1 0.000000 8.213794 24.225518 37.772433 0 0 0
149 1 1 0.000000 21.717158 7.853002 1.915928 0 0 1
150 1 1 0.000000 23.867823 49.658072 4.667503 0 0 0
151 1 1 0.000000 49.884343 24.858188 2.825154 0 -1 0
152 1 1 0.000000 8.791249 44.614747 13.767850 -1 0 0
153 1 1 0.000000 0.953078 29.873259 10.508461 0 0 0
154 1 1 0.000000 23.910493 32.913044 0.274819 0 0 0
155 1 1 0.000000 41.112043 16.466451 16.378977 0 0 0
156 1 1 0.000000 1.885994 13.587351 24.513619 0 0 0
157 1 1 0.000000 42.557613 39.444810 29.510668 0 0 0
158 1 1 0.000000 9.230072 32.963998 36.915492 0 0 0
159 1 1 0.000000 4.146683 6.403075 49.340517 0 1 0
160 1 1 0.000000 47.757729 12.585045 32.961561 0 0 0
161 1 1 0.000000 21.730930 11.713272 41.148332 0 0 0
162 1 1 0.000000 49.199099 10.605220 15.177215 0 -1 0
163 1 1 0.000000 8.959147 25.709787 28.238784 0 0 0
164 1 1 0.000000 24.336019 38.552251 15.262558 0 0 0
165 1 1 0.000000 36.749345 2.709087 8.111270 1 0 0
166 1 1 0.000000 17.559228 37.794346 49.068075 0 0 0
167 1 1 0.000000 17.622768 28.306790 28.539408 0 0 0
168 1 1 0.000000 1.830313 41.419328 48.567211 0 1 0
169 1 1 0.000000 37.839744 39.690987 37.661333 0 0 0
170 1 1 0.000000 39.558920 44.616972 9.654490 0 0 0
171 1 1 0.000000 40.874388 7.288470 35.254691 0 0 0
172 1 1 0.000000 8.940047 34.391494 46.377179 0 0 0
173 1 1 0.000000 31.844042 29.783885 3.208425 0 0 0
174 1 1 0.000000 32.599738 26.051731 26.965316 0 0 0
175 1 1 0.000000 21.657788 21.559291 41.649031 0 0 0
176 1 1 0.000000 19.775447 30.379366 16.387144 0 0 0
177 1 1 0.000000 22.211812 33.989496 24.752878 0 0 0
178 1 1 0.000000 21.078270 47.429766 13.471135 0 0 0
179 1 1 0.000000 11.668667 11.236193 44.911615 0 0 0
180 1 1 0.000000 4.858588 33.844819 28.694312 0 0 0
181 1 1 0.000000 35.382764 21.366002 0.514894 0 0 0
182 1 1 0.000000 36.007822 48.384768 17.796743 0 0 0
183 1 1 0.000000 1.832859 15.190206 46.197703 0 0 0
184 1 1 0.000000 48.988084 20.898684 19.631593 0 0 0
185 1 1 0.000000 12.899330 7.849566 36.363998 0 0 0
186 1 1 0.000000 9.222234 39.633598 4.071950 0 0 0
187 1 1 0.000000 29.610315 25.272757 45.378411 0 0 0

Bonds

1 1 22 119
2 1 16 183
3 1 20 161
4 1 15 97
5 1 86 170
6 1 69 98
7 1 67 168
8 1 161 166
9 1 40 156
10 1 53 122
11 1 114 175
12 1 59 118
13 1 8 98
14 1 75 109
15 1 118 181
16 1 75 108
17 1 26 38
18 1 46 87
19 1 10 55
20 1 51 53
21 1 85 186
22 1 43 179
23 1 37 183
24 1 14 54
25 1 6 116
26 1 35 168
27 1 18 52
28 1 105 119
29 1 16 37
30 1 84 146
31 1 34 57
32 1 106 158
33 1 105 170
34 1 21 179
35 1 35 186
36 1 76 165
37 1 101 142
38 1 93 152
39 1 14 37
40 1 104 131
41 1 9 162
42 1 124 166
43 1 107 137
44 1 41 187
45 1 118 150
46 1 18 55
47 1 16 187
48 1 91 92
49 1 170 182
50 1 7 25
51 1 41 129
52 1 9 57
53 1 36 116
54 1 30 74
55 1 46 61
56 1 55 56
57 1 167 187
58 1 35 83
59 1 34 129
60 1 47 96
61 1 70 95
62 1 5 133
63 1 77 140
64 1 91 122
65 1 111 113
66 1 5 165
67 1 105 156
68 1 43 93
69 1 4 10
70 1 91 162
71 1 90 102
72 1 60 157
73 1 15 88
74 1 30 46
75 1 39 173
76 1 15 185
77 1 102 149
78 1 78 132
79 1 69 165
80 1 81 179
81 1 7 76
82 1 51 177
83 1 71 143
84 1 128 168
85 1 87 181
86 1 42 60
87 1 17 184
88 1 9 141
89 1 28 163
90 1 65 184
91 1 101 120
92 1 14 156
93 1 71 151
94 1 95 141
95 1 27 47
96 1 1 178
97 1 40 127
98 1 56 68
99 1 31 125
100 1 164 177
101 1 73 82
102 1 25 70
103 1 143 151
104 1 173 182
105 1 22 143
106 1 7 68
107 1 48 108
108 1 109 182
109 1 38 64
110 1 120 180
111 1 119 175
112 1 17 139
113 1 21 96
114 1 129 181
115 1 101 108
116 1 10 107
117 1 28 39
118 1 5 93
119 1 62 127
120 1 30 144
121 1 146 186
122 1 151 177
123 1 83 171
124 1 58 162
125 1 20 148
126 1 29 36
127 1 98 109
128 1 1 32
129 1 18 77
130 1 65 120
131 1 107 115
132 1 79 83
133 1 161 163
134 1 142 154
135 1 66 76
136 1 42 72
137 1 60 114
138 1 41 148
139 1 78 152
140 1 85 94
141 1 114 141
142 1 127 155
143 1 62 122
144 1 171 173
145 1 43 94
146 1 26 155
147 1 112 148
148 1 57 61
149 1 85 130
150 1 24 48
151 1 116 184
152 1 96 172
153 1 26 128
154 1 28 78
155 1 36 115
156 1 66 149
157 1 42 171
158 1 4 139
159 1 25 163
160 1 117 150
161 1 77 112
162 1 72 100
163 1 20 125
164 1 90 159
165 1 125 180
166 1 50 63
167 1 45 115
168 1 48 70
169 1 123 136
170 1 49 164
171 1 13 21
172 1 51 103
173 1 34 144
174 1 24 169
175 1 94 164
176 1 40 103
177 1 29 158
178 1 67 176
179 1 33 138
180 1 50 100
181 1 27 75
182 1 22 140
183 1 1 39
184 1 4 124
185 1 3 155
186 1 92 136
187 1 142 174
188 1 89 110
189 1 117 174
190 1 61 147
191 1 140 149
192 1 123 132
193 1 86 123
194 1 6 33
195 1 19 102
196 1 59 175
197 1 97 169
198 1 47 90
199 1 29 134
200 1 32 33
201 1 12 99
202 1 136 145
203 1 72 169
204 1 80 167
205 1 3 103
206 1 69 121
207 1 3 24
208 1 67 158
209 1 31 52
210 1 154 172
211 1 38 159
212 1 6 17
213 1 92 152
214 1 49 157
215 1 81 126
216 1 12 185
217 1 106 160
218 1 68 131
219 1 82 178
220 1 110 160
221 1 74 172
222 1 31 135
223 1 49 104
224 1 80 86
225 1 66 82
226 1 71 147
227 1 19 185
228 1 12 180
229 1 97 139
230 1 19 64
231 1 80 153
232 1 63 100
233 1 124 135
234 1 54 174
235 1 59 81
236 1 89 160
237 1 44 146
238 1 84 121
239 1 65 183
240 1 11 79
241 1 32 79
242 1 89 153
243 1 56 138
244 1 8 88
245 1 11 126
246 1 73 74
247 1 2 13
248 1 113 134
249 1 44 99
250 1 44 138
251 1 130 167
252 1 134 178
253 1 88 145
254 1 27 63
255 1 84 144
256 1 45 147
257 1 23 135
258 1 54 157
259 1 45 130
260 1 53 132
261 1 121 128
262 1 13 145
263 1 137 150
264 1 52 159
265 1 95 137
266 1 2 112

