Generated by ZY

187 atoms
1 atom types
266 bonds
1 bond types

0.0000000000000000 50.0000000000000000 xlo xhi
0.0000000000000000 50.0000000000000000 ylo yhi
0.0000000000000000 50.0000000000000000 zlo zhi

Masses

1 1.000

Atoms # full

1 1 1 0.000000 46.538388 18.661847 16.292952 0 0 0
2 1 1 0.000000 12.781037 6.618544 42.966589 0 0 0
3 1 1 0.000000 17.129129 39.046735 12.058424 0 0 0
4 1 1 0.000000 42.696504 8.909596 19.911312 0 0 0
5 1 1 0.000000 25.539975 4.894657 30.552149 1 0 0
6 1 1 0.000000 31.711348 18.980619 17.591163 0 0 0
7 1 1 0.000000 34.381376 2.383264 17.454226 0 0 0
8 1 1 0.000000 6.098252 21.665719 14.525396 0 0 0
9 1 1 0.000000 41.391868 37.545934 41.889202 0 0 0
10 1 1 0.000000 2.714001 3.949980 1.779659 0 0 1
11 1 1 0.000000 17.660869 35.878932 3.968070 0 0 0
12 1 1 0.000000 23.463076 39.021965 39.300032 0 0 0
13 1 1 0.000000 31.116238 45.130473 6.676180 0 0 0
14 1 1 0.000000 18.297249 18.764734 27.928746 0 0 0
15 1 1 0.000000 19.897350 5.636387 4.566069 0 0 0
16 1 1 0.000000 42.215269 14.041291 44.648709 0 0 0
17 1 1 0.000000 33.831143 11.316604 41.574214 0 0 0
18 1 1 0.000000 35.629794 37.280187 9.702610 0 0 0
19 1 1 0.000000 24.652518 9.551035 47.527826 0 0 0
20 1 1 0.000000 34.250647 8.277015 25.014668 0 0 0
21 1 1 0.000000 12.764679 48.597231 17.860906 0 0 0
22 1 1 0.000000 29.147078 11.642251 6.341865 0 0 0
23 1 1 0.000000 4.721721 31.014910 27.156699 0 0 0
24 1 1 0.000000 40.211099 17.226336 10.484408 0 0 0
25 1 1 0.000000 31.773232 40.271620 21.158510 0 0 0
26 1 1 0.000000 15.954972 8.347072 26.007494 0 0 0
27 1 1 0.000000 26.972760 29.500913 29.385512 0 0 0
28 1 1 0.000000 15.330816 22.348914 16.197885 0 0 0
29 1 1 0.000000 43.384833 6.292583 29.876195 0 -1 0
30 1 1 0.000000 47.901661 43.564991 21.575773 0 0 0
31 1 1 0.000000 39.556103 13.094300 35.164366 0 0 0
32 1 1 0.000000 39.130276 34.732278 17.734952 0 0 0
33 1 1 0.000000 18.369906 40.868915 46.391592 0 0 0
34 1 1 0.000000 10.571577 15.128897 20.928920 0 0 0
35 1 1 0.000000 11.163912 2.240016 0.430514 0 0 1
36 1 1 0.000000 10.297119 35.830462 48.629899 0 0 0
37 1 1 0.000000 12.280742 38.049226 39.808301 0 0 0
38 1 1 0.000000 17.832415 12.710174 9.328204 0 0 0
39 1 1 0.000000 18.965151 42.107977 20.050881 0 0 0
40 1 1 0.000000 17.094489 31.235862 17.370910 0 0 0
41 1 1 0.000000 18.489515 27.660780 26.166502 0 0 0
42 1 1 0.000000 12.839525 19.497554 47.065954 0 0 0
43 1 1 0.000000 47.088895 25.511904 26.737805 0 0 0
44 1 1 0.000000 3.509893 10.088212 25.603481 0 0 0
45 1 1 0.000000 30.520665 17.107137 47.744839 0 0 0
46 1 1 0.000000 48.168968 35.224841 35.495012 0 0 0
47 1 1 0.000000 0.332503 10.714671 45.679202 0 1 0
48 1 1 0.000000 14.398794 44.812986 4.120699 0 0 0
49 1 1 0.000000 35.044965 10.594880 14.175686 0 0 0
50 1 1 0.000000 30.825036 48.001373 36.261265 0 0 0
51 1 1 0.000000 9.683992 23.791960 27.530556 0 0 0
52 1 1 0.000000 24.214141 43.709541 30.396385 0 0 0
53 1 1 0.000000 46.844861 28.153080 0.410021 0 0 0
54 1 1 0.000000 30.362643 26.024791 44.558393 0 0 -1
55 1 1 0.000000 5.362982 24.952248 45.680960 0 1 0
56 1 1 0.000000 44.629237 49.963216 14.304966 0 0 0
57 1 1 0.000000 19.354013 14.749738 19.207450 0 0 0
58 1 1 0.000000 15.838716 4.111480 34.283074 0 0 0
59 1 1 0.000000 17.862792 25.167616 36.162339 0 0 0
60 1 1 0.000000 37.136332 26.732349 13.576357 0 0 0
61 1 1 0.000000 24.299204 5.985307 38.883599 0 0 0
62 1 1 0.000000 40.000464 18.797603 1.959857 0 0 0
63 1 1 0.000000 33.963078 5.897312 33.486928 0 0 0
64 1 1 0.000000 41.684408 29.311034 34.022221 0 0 0
65 1 1 0.000000 37.545703 49.510704 49.091882 0 0 0
66 1 1 0.000000 31.517902 28.814719 20.535071 0 0 0
67 1 1 0.000000 19.593163 1.167352 46.161569 0 0 0
68 1 1 0.000000 26.990362 36.818668 48.132052 0 0 0
69 1 1 0.000000 49.102621 38.683555 5.650168 0 -1 0
70 1 1 0.000000 25.439867 15.159062 39.800673 0 0 0
71 1 1 0.000000 26.853555 45.955237 44.598368 -1 0 0
72 1 1 0.000000 47.824924 41.870540 29.890925 0 0 0
73 1 1 0.000000 20.918611 29.106723 48.709336 1 0 -1
74 1 1 0.000000 9.264292 21.990239 37.750284 0 0 0
75 1 1 0.000000 42.011025 36.242613 0.950139 0 0 0
76 1 1 0.000000 0.732654 13.873220 8.464784 0 1 0
77 1 1 0.000000 5.207165 2.677054 42.571935 0 0 0
78 1 1 0.000000 19.866389 47.600407 12.309370 0 0 0
79 1 1 0.000000 26.445975 11.672221 14.752062 0 0 0
80 1 1 0.000000 29.673042 2.888821 1.687256 1 0 0
81 1 1 0.000000 2.134255 11.878932 16.577821 0 0 0
82 1 1 0.000000 5.220974 32.969605 39.727964 0 0 0
83 1 1 0.000000 27.588995 21.224520 25.746390 0 0 0
84 1 1 0.000000 13.080856 26.931679 1.924223 0 0 0
85 1 1 0.000000 33.603054 30.773534 36.315435 0 0 0
86 1 1 0.000000 3.081763 20.156662 22.624694 0 1 0
87 1 1 0.000000 38.709053 27.385886 4.957701 0 0 0
88 1 1 0.000000 44.772403 34.310325 25.707315 0 0 0
89 1 1 0.000000 46.112423 39.664096 14.234586 0 0 0
90 1 1 0.000000 42.179740 0.437184 23.286890 0 0 0
91 1 1 0.000000 22.943800 45.450316 2.836340 0 0 1
92 1 1 0.000000 39.111756 45.922875 40.369669 0 0 0
93 1 1 0.000000 26.664422 3.943465 10.777864 0 0 0
94 1 1 0.000000 40.428508 5.420132 38.785079 0 0 0
95 1 1 0.000000 5.066002 23.315100 6.428497 0 0 0
96 1 1 0.000000 44.582093 10.840966 2.648928 0 0 0
97 1 1 0.000000 35.798578 32.165341 46.286278 0 0 0
98 1 1 0.000000 44.590087 43.840545 47.561759 -1 -1 0
99 1 1 0.000000 23.259220 25.274809 18.530153 0 0 0
100 1 1 0.000000 39.062275 48.064155 30.926861 0 0 0
101 1 1 0.000000 15.182932 11.441173 49.737991 0 0 0
102 1 1 0.000000 26.206200 35.647577 17.225118 0 0 0
103 1 1 0.000000 11.182333 1.936896 9.873249 1 0 0
104 1 1 0.000000 6.440592 4.602350 33.695156 0 0 0
105 1 1 0.000000 31.278154 15.155185 32.377693 0 0 0
106 1 1 0.000000 28.181917 46.081049 14.746553 0 0 0
107 1 1 0.000000 8.734775 6.634039 19.015756 0 0 0
108 1 1 0.000000 9.918264 37.475887 16.890858 0 0 0
109 1 1 0.000000 40.642708 23.752313 44.509420 0 0 0
110 1 1 0.000000 23.747859 19.561792 11.199622 0 0 0
111 1 1 0.000000 4.501432 46.032274 16.172199 0 0 0
112 1 1 0.000000 0.564184 26.349620 35.347051 0 0 0
113 1 1 0.000000 19.997783 27.009524 8.185835 0 0 0
114 1 1 0.000000 41.401101 43.214784 6.328262 0 0 0
115 1 1 0.000000 16.950451 6.413274 15.447057 1 0 0
116 1 1 0.000000 16.753429 15.278511 40.101333 0 0 0
117 1 1 0.000000 43.926833 8.356059 10.957584 0 0 0
118 1 1 0.000000 32.018706 2.861109 43.307710 0 0 0
119 1 1 0.000000 9.200889 28.248282 19.646008 0 0 0
120 1 1 0.000000 19.135782 49.247636 25.299623 0 0 0
121 1 1 0.000000 36.438009 31.241209 27.115585 -1 0 0
122 1 1 0.000000 13.451809 28.314263 43.267264 0 0 0
123 1 1 0.000000 47.315413 0.094458 36.801565 0 0 0
124 1 1 0.000000 36.409913 3.933437 8.075278 0 0 0
125 1 1 0.000000 30.382141 48.378967 25.442135 0 0 0
126 1 1 0.000000 28.406617 28.183683 12.324500 0 0 0
127 1 1 0.000000 0.837771 46.946588 7.984892 0 0 0
128 1 1 0.000000 7.103257 14.756031 1.802402 0 0 1
129 1 1 0.000000 26.813366 22.359679 34.774598 0 0 0
130 1 1 0.000000 10.624498 1.049300 26.573035 0 0 0
131 1 1 0.000000 2.637022 4.748719 11.356553 0 0 0
132 1 1 0.000000 49.692604 10.084256 36.078892 0 0 0
133 1 1 0.000000 35.609085 9.552155 0.615776 0 0 1
134 1 1 0.000000 39.677160 42.090103 24.641594 0 0 0
135 1 1 0.000000 25.570259 3.549909 20.694023 0 0 0
136 1 1 0.000000 10.815539 12.448688 33.379312 0 0 0
137 1 1 0.000000 35.527425 22.241553 30.010519 0 0 0
138 1 1 0.000000 32.556222 39.189718 40.796744 0 0 0
139 1 1 0.000000 31.474102 37.617983 30.959421 0 0 0
140 1 1 0.000000 0.603525 2.718158 19.919270 0 0 0
141 1 1 0.000000 25.672858 12.553569 25.342273 0 0 0
142 1 1 0.000000 9.454373 10.359398 10.106935 0 0 0
143 1 1 0.000000 46.020337 15.453224 27.886365 0 0 0
144 1 1 0.000000 46.425367 2.318804 45.330302 0 0 0
145 1 1 0.000000 34.949016 40.993295 49.486888 0 0 0
146 1 1 0.000000 38.670833 16.624861 23.250239 0 0 0
147 1 1 0.000000 34.701165 19.622550 39.446465 0 0 0
148 1 1 0.000000 11.399577 31.366069 9.118381 0 0 0
149 1 1 0.000000 2.215192 36.022772 20.542782 0 0 0
150 1 1 0.000000 1.316073 42.817530 40.498238 0 0 0
151 1 1 0.000000 4.174381 31.225654 3.270090 0 0 1
152 1 1 0.000000 4.193315 17.901613 31.919412 0 1 0
153 1 1 0.000000 25.153199 30.079744 38.462708 1 0 -1
154 1 1 0.000000 21.592631 22.140659 44.080613 0 0 0
155 1 1 0.000000 18.568938 46.964861 38.478527 0 0 0
156 1 1 0.000000 43.479599 20.879291 34.983643 0 0 0
157 1 1 0.000000 9.878097 46.532637 35.545042 0 0 0
158 1 1 0.000000 6.663794 43.328677 24.073119 0 0 0
159 1 1 0.000000 26.153998 36.210446 7.781747 0 0 0
160 1 1 0.000000 7.845962 40.375254 8.984006 0 0 0
161 1 1 0.000000 24.063235 20.672880 2.232211 0 0 1
162 1 1 0.000000 11.346051 30.236468 33.850208 0 0 0
163 1 1 0.000000 49.140822 19.908555 0.564451 0 0 1
164 1 1 0.000000 0.616516 49.765787 28.818394 0 1 0
165 1 1 0.000000 10.520492 45.476285 44.726080 0 0 0
166 1 1 0.000000 7.263391 14.133658 41.502728 0 0 0
167 1 1 0.000000 44.045432 32.138725 9.636605 0 -1 0
168 1 1 0.000000 47.947901 28.565711 18.336572 0 0 0
169 1 1 0.000000 39.642347 39.187658 33.321921 0 0 0
170 1 1 0.000000 44.485160 1.986886 4.717730 1 0 0
171 1 1 0.000000 18.468777 34.748518 34.089210 0 0 0
172 1 1 0.000000 49.691301 18.988376 40.579010 0 0 0
173 1 1 0.000000 3.974853 44.683021 49.970646 0 0 0
174 1 1 0.000000 0.844961 36.539124 46.428359 0 1 -1
175 1 1 0.000000 21.746823 35.915717 25.245574 0 0 0
176 1 1 0.000000 14.873416 42.292375 28.807567 0 0 0
177 1 1 0.000000 46.305203 30.313257 42.249013 0 0 0
178 1 1 0.000000 6.588011 38.613006 31.074972 0 0 0
179 1 1 0.000000 29.812755 29.877534 2.948111 0 0 0
180 1 1 0.000000 46.192853 23.950609 8.867705 0 0 0
181 1 1 0.000000 20.619611 12.264002 33.104357 0 0 0
182 1 1 0.000000 40.503587 25.492428 21.569647 0 0 0
183 1 1 0.000000 38.171074 44.596987 16.541419 0 0 0
184 1 1 0.000000 32.092479 20.986727 7.447623 0 0 0
185 1 1 0.000000 3.108041 30.826594 12.075023 0 0 0
186 1 1 0.000000 12.865116 34.438854 25.476820 0 0 0
187 1 1 0.000000 13.180356 20.056225 7.072196 0 0 0

Bonds

1 1 69 187
2 1 65 134
3 1 156 162
4 1 97 118
5 1 109 146
6 1 51 137
7 1 31 164
8 1 105 156
9 1 36 184
10 1 26 147
11 1 29 186
12 1 88 132
13 1 24 185
14 1 3 26
15 1 180 187
16 1 5 172
17 1 53 139
18 1 70 132
19 1 26 146
20 1 102 159
21 1 18 127
22 1 2 47
23 1 4 148
24 1 120 165
25 1 29 157
26 1 63 128
27 1 89 182
28 1 126 156
29 1 88 168
30 1 61 70
31 1 15 174
32 1 64 97
33 1 102 139
34 1 154 161
35 1 152 174
36 1 36 103
37 1 113 184
38 1 23 109
39 1 108 153
40 1 73 91
41 1 37 98
42 1 37 72
43 1 72 169
44 1 41 102
45 1 15 27
46 1 72 147
47 1 14 47
48 1 69 111
49 1 19 77
50 1 44 74
51 1 20 61
52 1 103 145
53 1 93 145
54 1 19 61
55 1 83 118
56 1 10 128
57 1 5 16
58 1 24 180
59 1 150 158
60 1 11 71
61 1 147 154
62 1 17 91
63 1 123 148
64 1 38 186
65 1 143 146
66 1 71 153
67 1 11 173
68 1 105 186
69 1 9 78
70 1 68 179
71 1 126 184
72 1 59 153
73 1 17 152
74 1 43 83
75 1 57 162
76 1 93 130
77 1 129 139
78 1 51 119
79 1 5 63
80 1 25 118
81 1 34 107
82 1 68 126
83 1 65 142
84 1 94 144
85 1 80 106
86 1 117 152
87 1 2 123
88 1 45 84
89 1 45 137
90 1 54 92
91 1 39 174
92 1 19 161
93 1 82 109
94 1 130 180
95 1 33 39
96 1 185 187
97 1 75 84
98 1 51 154
99 1 23 181
100 1 62 144
101 1 28 162
102 1 66 137
103 1 105 120
104 1 33 92
105 1 128 159
106 1 111 183
107 1 9 85
108 1 9 127
109 1 14 159
110 1 80 170
111 1 45 132
112 1 90 100
113 1 95 179
114 1 24 135
115 1 121 183
116 1 1 113
117 1 4 62
118 1 58 144
119 1 1 99
120 1 52 71
121 1 30 136
122 1 84 182
123 1 46 92
124 1 49 86
125 1 49 57
126 1 100 106
127 1 33 119
128 1 108 158
129 1 3 106
130 1 21 39
131 1 80 104
132 1 54 161
133 1 110 165
134 1 100 111
135 1 66 85
136 1 94 136
137 1 32 62
138 1 81 142
139 1 88 140
140 1 16 166
141 1 46 121
142 1 16 170
143 1 122 151
144 1 97 167
145 1 2 85
146 1 94 181
147 1 28 38
148 1 6 119
149 1 101 112
150 1 75 82
151 1 18 32
152 1 173 178
153 1 31 138
154 1 50 171
155 1 91 104
156 1 36 151
157 1 46 141
158 1 35 145
159 1 131 165
160 1 117 177
161 1 47 131
162 1 120 135
163 1 96 167
164 1 17 107
165 1 141 160
166 1 49 115
167 1 30 55
168 1 42 179
169 1 93 117
170 1 59 151
171 1 82 112
172 1 83 155
173 1 114 124
174 1 150 155
175 1 11 37
176 1 1 130
177 1 64 121
178 1 95 127
179 1 101 113
180 1 122 173
181 1 12 77
182 1 89 110
183 1 76 148
184 1 13 60
185 1 96 116
186 1 89 160
187 1 18 43
188 1 31 96
189 1 32 183
190 1 99 181
191 1 8 48
192 1 104 166
193 1 65 167
194 1 133 168
195 1 70 116
196 1 48 131
197 1 15 38
198 1 3 66
199 1 114 142
200 1 6 115
201 1 25 52
202 1 53 108
203 1 58 157
204 1 6 20
205 1 77 170
206 1 99 185
207 1 116 157
208 1 14 86
209 1 4 172
210 1 42 95
211 1 177 178
212 1 58 178
213 1 64 125
214 1 57 69
215 1 20 27
216 1 8 163
217 1 67 79
218 1 63 164
219 1 44 78
220 1 150 177
221 1 75 87
222 1 23 41
223 1 163 168
224 1 101 107
225 1 87 160
226 1 110 172
227 1 149 158
228 1 114 115
229 1 44 56
230 1 52 155
231 1 21 182
232 1 30 78
233 1 13 123
234 1 10 164
235 1 50 79
236 1 43 166
237 1 40 169
238 1 22 87
239 1 68 138
240 1 122 133
241 1 48 55
242 1 35 124
243 1 124 163
244 1 21 41
245 1 22 133
246 1 55 59
247 1 135 176
248 1 90 134
249 1 56 81
250 1 67 176
251 1 112 143
252 1 8 13
253 1 54 138
254 1 134 169
255 1 35 129
256 1 50 140
257 1 27 141
258 1 7 81
259 1 28 149
260 1 12 171
261 1 29 129
262 1 10 67
263 1 86 140
264 1 60 79
265 1 60 175
266 1 56 76

