Generated by ZY code

187 atoms
1 atom types
266 bonds
1 bond types
0 angles
0 angle types
0 dihedrals
0 dihedral types
0 impropers
0 improper types

0.0000000000000000 50.0000000000000000 xlo xhi
0.0000000000000000 50.0000000000000000 ylo yhi
0.0000000000000000 50.0000000000000000 zlo zhi

Masses

1 1.000

Atoms # full

1 1 1 0.000000 5.676964 2.029664 16.100948 0 0 0
2 1 1 0.000000 20.837599 14.989297 48.565324 0 0 -1
3 1 1 0.000000 8.195469 16.525603 19.204474 0 0 0
4 1 1 0.000000 43.067486 46.683348 34.960111 0 0 0
5 1 1 0.000000 45.450437 37.666204 2.951248 0 0 1
6 1 1 0.000000 23.603477 33.647138 25.999417 0 0 0
7 1 1 0.000000 13.740116 38.810085 10.696106 0 0 0
8 1 1 0.000000 21.203758 9.186122 13.905283 0 0 0
9 1 1 0.000000 1.229961 21.742461 23.128480 0 1 0
10 1 1 0.000000 28.277425 28.686677 35.640373 0 0 0
11 1 1 0.000000 33.243732 0.999818 47.715659 0 0 -1
12 1 1 0.000000 28.793572 4.726886 13.352988 0 0 0
13 1 1 0.000000 49.065150 22.713678 5.503249 0 0 0
14 1 1 0.000000 19.751784 26.513698 33.275972 0 0 0
15 1 1 0.000000 38.775277 10.359021 36.648324 0 0 0
16 1 1 0.000000 44.438403 15.866339 46.279970 0 0 0
17 1 1 0.000000 4.172528 6.220525 32.534296 0 0 0
18 1 1 0.000000 32.344462 20.020778 37.683504 0 0 0
19 1 1 0.000000 1.449263 22.960064 32.401780 0 0 0
20 1 1 0.000000 1.270679 49.486663 8.240974 0 0 0
21 1 1 0.000000 32.845596 33.961456 26.037974 0 0 0
22 1 1 0.000000 7.033150 10.032196 0.494591 0 0 0
23 1 1 0.000000 2.574004 43.295662 2.388436 0 0 0
24 1 1 0.000000 38.143917 21.850917 7.402600 0 0 0
25 1 1 0.000000 46.277665 40.600360 26.712709 0 0 0
26 1 1 0.000000 28.078606 40.716973 49.357353 0 0 0
27 1 1 0.000000 21.754581 16.880125 9.502000 0 0 0
28 1 1 0.000000 49.606928 48.206235 41.042025 0 -1 0
29 1 1 0.000000 24.836621 5.100674 47.341937 0 0 0
30 1 1 0.000000 43.188572 29.720735 6.868529 0 0 0
31 1 1 0.000000 27.950365 14.252173 42.413350 0 0 0
32 1 1 0.000000 22.452915 8.962818 4.569591 0 0 0
33 1 1 0.000000 35.779104 34.107451 34.851218 0 0 0
34 1 1 0.000000 20.199214 10.851008 40.692753 0 0 0
35 1 1 0.000000 12.718207 19.606563 10.625707 0 0 0
36 1 1 0.000000 32.459471 35.794751 43.491250 0 0 0
37 1 1 0.000000 36.486739 10.080509 27.451778 0 0 0
38 1 1 0.000000 16.503019 31.943911 48.083126 0 0 0
39 1 1 0.000000 19.857169 24.726144 13.982729 0 0 0
40 1 1 0.000000 16.748606 32.942731 16.675225 0 0 0
41 1 1 0.000000 19.495815 6.330038 22.967314 0 0 0
42 1 1 0.000000 35.931889 18.840315 45.928508 0 0 0
43 1 1 0.000000 33.199987 49.831633 6.205480 0 0 0
44 1 1 0.000000 24.384619 31.232991 9.166246 0 0 0
45 1 1 0.000000 32.983013 18.267747 25.213361 0 0 0
46 1 1 0.000000 12.089340 8.919047 15.638925 1 0 0
47 1 1 0.000000 29.363036 47.531849 30.333127 0 0 0
48 1 1 0.000000 43.482014 49.087219 24.820682 0 0 0
49 1 1 0.000000 32.606258 26.438083 2.244525 0 0 0
50 1 1 0.000000 14.625781 0.132927 18.886787 0 0 0
51 1 1 0.000000 36.561209 1.708507 31.080120 0 0 0
52 1 1 0.000000 0.152599 32.640649 28.977833 0 1 0
53 1 1 0.000000 49.883009 3.599864 0.237679 0 -1 0
54 1 1 0.000000 8.571780 9.358558 24.895240 0 0 0
55 1 1 0.000000 9.015045 42.124643 17.236798 0 0 0
56 1 1 0.000000 22.299395 24.573476 3.662930 0 0 0
57 1 1 0.000000 11.766242 41.524587 37.830239 0 0 0
58 1 1 0.000000 41.623766 19.918083 37.777429 0 0 0
59 1 1 0.000000 8.279622 49.427156 25.609896 -1 0 0
60 1 1 0.000000 39.652347 13.748249 3.850691 0 0 0
61 1 1 0.000000 30.461694 6.470582 38.267856 0 0 0
62 1 1 0.000000 7.588376 21.775544 39.420548 0 0 0
63 1 1 0.000000 7.081765 45.100671 44.649097 0 0 0
64 1 1 0.000000 49.315872 33.648927 18.495906 0 0 0
65 1 1 0.000000 7.554314 32.986144 14.572405 0 1 1
66 1 1 0.000000 15.293026 18.098515 36.172904 0 0 0
67 1 1 0.000000 20.803030 43.213076 35.821664 0 0 0
68 1 1 0.000000 26.505919 29.700891 17.986439 0 0 0
69 1 1 0.000000 40.663503 4.444871 1.710046 0 0 0
70 1 1 0.000000 18.399624 25.585945 24.106679 0 0 0
71 1 1 0.000000 15.345690 3.867540 30.680348 0 0 0
72 1 1 0.000000 8.991411 27.199240 47.094952 0 0 0
73 1 1 0.000000 34.111543 43.771429 38.371229 0 0 0
74 1 1 0.000000 45.158222 37.289737 35.037483 0 0 0
75 1 1 0.000000 49.980418 13.591862 27.029785 0 0 0
76 1 1 0.000000 4.462016 19.327535 49.326774 0 0 0
77 1 1 0.000000 8.923835 34.722488 2.641090 0 0 0
78 1 1 0.000000 2.938683 25.267158 14.807110 0 1 0
79 1 1 0.000000 8.982330 0.010714 35.748620 1 0 0
80 1 1 0.000000 34.019269 29.692863 10.806524 0 0 0
81 1 1 0.000000 15.566538 30.416788 7.529865 0 0 0
82 1 1 0.000000 38.795533 33.049356 49.697415 0 0 0
83 1 1 0.000000 35.141507 10.252382 45.737364 0 0 0
84 1 1 0.000000 6.996230 15.583862 32.256693 0 0 0
85 1 1 0.000000 5.071906 16.877003 9.321929 0 0 0
86 1 1 0.000000 19.997580 48.070250 49.703945 0 0 -1
87 1 1 0.000000 19.909569 24.200807 44.652648 0 0 0
88 1 1 0.000000 39.599175 38.883350 9.486345 0 0 0
89 1 1 0.000000 7.231753 26.310717 5.876148 0 0 0
90 1 1 0.000000 14.606354 22.419165 1.368080 0 0 0
91 1 1 0.000000 18.161911 16.097008 17.668428 0 0 0
92 1 1 0.000000 44.730682 45.987668 48.953334 0 0 -1
93 1 1 0.000000 40.617567 38.831402 43.618136 0 0 -1
94 1 1 0.000000 48.947348 22.611536 41.634457 0 0 0
95 1 1 0.000000 43.747893 43.254249 15.876318 0 0 0
96 1 1 0.000000 9.434996 46.070185 9.162667 0 0 0
97 1 1 0.000000 26.529340 47.281464 42.123120 0 0 0
98 1 1 0.000000 28.307398 20.557729 18.497803 0 0 0
99 1 1 0.000000 31.027781 44.861419 14.161146 0 0 0
100 1 1 0.000000 43.786286 17.633504 20.962993 0 -1 0
101 1 1 0.000000 26.215790 31.728036 49.862070 0 0 0
102 1 1 0.000000 14.795437 33.383844 26.122788 0 0 0
103 1 1 0.000000 29.875903 16.063495 1.748181 0 0 0
104 1 1 0.000000 26.663299 24.624274 27.468417 0 0 0
105 1 1 0.000000 19.850956 11.919303 32.113039 0 0 0
106 1 1 0.000000 14.979412 4.366977 8.205678 1 0 0
107 1 1 0.000000 23.735162 32.117689 41.574740 0 0 0
108 1 1 0.000000 28.135787 23.033664 44.778492 0 0 0
109 1 1 0.000000 15.486173 17.300577 25.982507 0 0 0
110 1 1 0.000000 46.046017 2.581644 16.097444 1 0 0
111 1 1 0.000000 12.245818 8.833392 37.922438 0 0 0
112 1 1 0.000000 38.843469 1.865589 40.493737 0 0 0
113 1 1 0.000000 43.680868 25.319651 25.128051 0 0 0
114 1 1 0.000000 33.718338 11.533823 18.855835 0 0 0
115 1 1 0.000000 44.690451 30.646065 42.368330 0 0 0
116 1 1 0.000000 37.592326 3.565930 14.460102 0 0 0
117 1 1 0.000000 0.040691 38.300181 44.425626 0 1 0
118 1 1 0.000000 36.425286 19.718762 15.578390 0 0 0
119 1 1 0.000000 13.690743 13.011397 5.929439 0 0 0
120 1 1 0.000000 19.575549 47.027016 12.746426 0 0 0
121 1 1 0.000000 10.674803 24.633452 30.182520 0 0 0
122 1 1 0.000000 41.888947 47.589449 8.361423 0 0 0
123 1 1 0.000000 25.357338 45.995447 6.773933 0 0 0
124 1 1 0.000000 6.008628 7.749461 9.129447 0 0 0
125 1 1 0.000000 35.592840 42.976639 21.431534 0 0 1
126 1 1 0.000000 24.622479 15.689818 24.735350 0 0 0
127 1 1 0.000000 25.555314 49.513918 20.294233 0 0 0
128 1 1 0.000000 13.864447 28.678765 39.218692 0 0 0
129 1 1 0.000000 2.732108 30.201924 38.930112 0 0 0
130 1 1 0.000000 30.342246 13.485197 32.431150 0 0 0
131 1 1 0.000000 31.618401 8.012504 4.064436 1 0 0
132 1 1 0.000000 20.932871 47.780759 27.244192 0 0 0
133 1 1 0.000000 42.037128 17.572230 29.845926 0 0 0
134 1 1 0.000000 27.781453 38.250897 33.673396 0 0 0
135 1 1 0.000000 15.174622 6.948761 48.358500 0 0 0
136 1 1 0.000000 43.925292 28.167330 33.612717 0 0 0
137 1 1 0.000000 28.123004 7.100998 26.171969 0 0 0
138 1 1 0.000000 13.032851 42.694686 28.524537 0 0 0
139 1 1 0.000000 19.838391 40.287601 44.224572 0 0 -1
140 1 1 0.000000 2.248002 41.452829 11.889400 0 0 0
141 1 1 0.000000 0.973626 47.556924 30.103914 0 1 0
142 1 1 0.000000 31.771998 36.370743 6.141138 0 0 0
143 1 1 0.000000 17.795510 34.941375 34.097655 0 0 0
144 1 1 0.000000 45.218161 5.752068 31.970072 0 0 0
145 1 1 0.000000 8.929076 35.297996 43.126798 0 0 0
146 1 1 0.000000 8.387172 0.827130 2.117377 0 0 1
147 1 1 0.000000 45.732318 7.143986 42.207887 0 0 -1
148 1 1 0.000000 23.708081 19.674835 37.149130 0 0 0
149 1 1 0.000000 0.940948 30.700508 0.003866 0 0 1
150 1 1 0.000000 0.647363 32.230662 9.465546 0 1 0
151 1 1 0.000000 17.724296 40.858437 19.977468 0 0 0
152 1 1 0.000000 35.336727 24.683999 30.468574 0 0 0
153 1 1 0.000000 28.519490 23.401001 10.103432 0 0 0
154 1 1 0.000000 36.640977 42.762299 1.894681 -1 0 0
155 1 1 0.000000 35.182884 27.463644 20.469271 0 0 0
156 1 1 0.000000 26.612930 40.942294 22.463808 0 0 0
157 1 1 0.000000 12.785600 16.905411 44.853551 0 1 0
158 1 1 0.000000 32.339842 36.053164 16.640821 0 0 0
159 1 1 0.000000 33.811967 2.333463 22.320174 0 0 0
160 1 1 0.000000 47.037594 18.414683 12.871658 0 0 0
161 1 1 0.000000 42.409225 23.535338 49.860529 0 0 -1
162 1 1 0.000000 21.064081 37.950810 3.825726 0 0 0
163 1 1 0.000000 0.803399 5.119333 24.329840 0 0 0
164 1 1 0.000000 48.992415 12.622870 3.397504 0 0 0
165 1 1 0.000000 45.525917 6.636593 8.550164 0 0 0
166 1 1 0.000000 11.681682 24.443207 17.785374 0 0 0
167 1 1 0.000000 37.158084 41.569143 29.769626 0 0 0
168 1 1 0.000000 0.470951 12.179103 17.753311 0 0 0
169 1 1 0.000000 1.099984 46.437776 21.209883 0 0 0
170 1 1 0.000000 43.526521 26.333663 15.725555 0 0 0
171 1 1 0.000000 8.594775 35.103325 32.064359 0 0 0
172 1 1 0.000000 35.762494 27.329122 42.016395 0 0 0
173 1 1 0.000000 42.593253 8.887143 21.442794 0 0 0
174 1 1 0.000000 5.017683 39.109381 24.629158 0 0 0
175 1 1 0.000000 41.167052 33.606110 27.748747 0 0 0
176 1 1 0.000000 22.312220 2.155832 36.155053 0 0 0
177 1 1 0.000000 5.628959 4.723801 43.126997 0 0 0
178 1 1 0.000000 5.037293 13.664342 42.099245 0 1 0
179 1 1 0.000000 30.362968 14.374970 10.627895 0 0 0
180 1 1 0.000000 40.709697 35.282235 18.985764 0 0 0
181 1 1 0.000000 40.709817 12.587340 12.813956 0 0 0
182 1 1 0.000000 7.046505 30.145429 22.883449 0 0 0
183 1 1 0.000000 24.447221 39.194248 13.001830 0 0 0
184 1 1 0.000000 48.107625 13.700398 36.344007 0 0 0
185 1 1 0.000000 13.300557 42.407394 1.071493 0 0 1
186 1 1 0.000000 15.787491 49.918181 41.725567 -1 0 0
187 1 1 0.000000 3.571243 41.451670 35.621005 0 0 0

Bonds

1 1 109 143
2 1 60 153
3 1 71 137
4 1 166 182
5 1 37 73
6 1 15 49
7 1 136 182
8 1 17 112
9 1 6 126
10 1 10 133
11 1 97 125
12 1 44 81
13 1 67 87
14 1 73 74
15 1 72 176
16 1 60 161
17 1 101 160
18 1 30 104
19 1 72 145
20 1 64 78
21 1 73 90
22 1 3 71
23 1 71 111
24 1 37 132
25 1 32 56
26 1 99 127
27 1 52 149
28 1 9 170
29 1 12 92
30 1 9 78
31 1 105 118
32 1 91 109
33 1 53 173
34 1 119 164
35 1 98 110
36 1 32 102
37 1 62 76
38 1 52 88
39 1 32 98
40 1 142 145
41 1 69 187
42 1 7 141
43 1 23 145
44 1 42 127
45 1 74 156
46 1 29 47
47 1 86 153
48 1 137 164
49 1 64 74
50 1 98 137
51 1 12 60
52 1 157 166
53 1 22 72
54 1 82 97
55 1 54 170
56 1 120 167
57 1 15 159
58 1 10 41
59 1 64 99
60 1 86 187
61 1 27 78
62 1 16 76
63 1 57 162
64 1 127 176
65 1 86 103
66 1 143 151
67 1 158 179
68 1 149 157
69 1 49 153
70 1 99 175
71 1 163 166
72 1 22 116
73 1 122 123
74 1 148 180
75 1 80 180
76 1 65 138
77 1 158 171
78 1 2 152
79 1 59 117
80 1 66 128
81 1 128 143
82 1 21 118
83 1 36 62
84 1 39 187
85 1 59 144
86 1 42 44
87 1 148 172
88 1 39 155
89 1 23 63
90 1 37 47
91 1 25 181
92 1 43 131
93 1 113 128
94 1 51 91
95 1 2 31
96 1 53 124
97 1 88 122
98 1 51 83
99 1 38 179
100 1 59 68
101 1 10 102
102 1 35 97
103 1 5 92
104 1 1 120
105 1 17 113
106 1 46 186
107 1 46 100
108 1 9 121
109 1 180 181
110 1 19 133
111 1 41 173
112 1 36 118
113 1 52 67
114 1 57 79
115 1 117 162
116 1 26 70
117 1 17 50
118 1 44 107
119 1 68 119
120 1 63 135
121 1 24 54
122 1 124 178
123 1 104 129
124 1 80 114
125 1 57 185
126 1 102 158
127 1 114 131
128 1 155 175
129 1 14 18
130 1 95 96
131 1 21 67
132 1 103 183
133 1 100 152
134 1 95 115
135 1 2 101
136 1 19 182
137 1 53 185
138 1 116 142
139 1 115 161
140 1 62 111
141 1 3 109
142 1 161 172
143 1 14 105
144 1 14 175
145 1 146 185
146 1 4 55
147 1 23 144
148 1 48 178
149 1 84 176
150 1 55 155
151 1 12 43
152 1 34 104
153 1 38 119
154 1 144 177
155 1 6 151
156 1 7 81
157 1 50 140
158 1 51 147
159 1 95 131
160 1 39 40
161 1 106 146
162 1 36 160
163 1 96 123
164 1 48 141
165 1 45 142
166 1 18 152
167 1 29 88
168 1 30 149
169 1 76 178
170 1 136 146
171 1 7 85
172 1 56 112
173 1 139 157
174 1 58 154
175 1 5 173
176 1 79 156
177 1 1 50
178 1 125 136
179 1 77 125
180 1 4 110
181 1 16 19
182 1 20 75
183 1 96 150
184 1 113 133
185 1 1 85
186 1 160 164
187 1 121 132
188 1 48 159
189 1 122 165
190 1 3 56
191 1 58 103
192 1 42 82
193 1 91 135
194 1 21 90
195 1 28 172
196 1 25 167
197 1 22 63
198 1 28 94
199 1 24 170
200 1 18 181
201 1 93 123
202 1 6 167
203 1 83 147
204 1 11 29
205 1 4 47
206 1 101 183
207 1 121 163
208 1 55 129
209 1 46 126
210 1 106 124
211 1 26 82
212 1 28 130
213 1 117 154
214 1 106 156
215 1 40 105
216 1 31 165
217 1 43 179
218 1 108 130
219 1 40 184
220 1 24 94
221 1 35 150
222 1 80 162
223 1 70 130
224 1 89 150
225 1 11 26
226 1 108 148
227 1 116 168
228 1 35 89
229 1 94 171
230 1 49 114
231 1 25 110
232 1 61 83
233 1 69 132
234 1 79 112
235 1 31 87
236 1 135 140
237 1 58 126
238 1 45 75
239 1 13 174
240 1 30 34
241 1 66 169
242 1 138 169
243 1 8 41
244 1 33 115
245 1 16 69
246 1 92 139
247 1 68 81
248 1 13 177
249 1 5 154
250 1 65 89
251 1 75 108
252 1 93 140
253 1 84 90
254 1 61 65
255 1 15 184
256 1 38 171
257 1 61 111
258 1 85 168
259 1 165 177
260 1 66 84
261 1 107 120
262 1 34 70
263 1 27 87
264 1 141 159
265 1 45 100
266 1 169 186

