Generated by ZY

96 atoms
1 atom types
136 bonds
1 bond types

0.0000000000000000 40.0000000000000000 xlo xhi
0.0000000000000000 40.0000000000000000 ylo yhi
0.0000000000000000 40.0000000000000000 zlo zhi

Masses

1 1.000

Atoms # full

1 1 1 0.000000 7.027535 8.038208 22.656222 0 0 0
2 1 1 0.000000 23.830798 33.282499 38.880164 0 0 0
3 1 1 0.000000 21.924867 22.266816 17.731183 0 0 0
4 1 1 0.000000 24.852704 6.789260 38.057010 0 0 0
5 1 1 0.000000 10.491979 0.523325 11.792382 0 0 0
6 1 1 0.000000 30.455068 36.575476 23.726180 0 0 0
7 1 1 0.000000 17.330864 30.925583 34.137837 0 0 0
8 1 1 0.000000 11.375213 1.893490 27.377847 0 0 0
9 1 1 0.000000 32.308901 32.807104 0.725884 -1 0 0
10 1 1 0.000000 25.955111 26.404764 11.500696 0 0 0
11 1 1 0.000000 15.980918 14.658936 32.015150 0 0 0
12 1 1 0.000000 34.056288 10.783623 13.707115 0 0 0
13 1 1 0.000000 31.980830 15.758365 8.948383 0 0 0
14 1 1 0.000000 33.492641 6.347577 39.910858 0 0 0
15 1 1 0.000000 17.660450 14.422148 18.576194 0 0 0
16 1 1 0.000000 37.136848 17.812473 1.186328 0 0 1
17 1 1 0.000000 0.017231 13.430255 33.486778 0 1 0
18 1 1 0.000000 37.087821 10.919294 6.662771 0 0 0
19 1 1 0.000000 34.133238 25.337784 13.740245 0 0 0
20 1 1 0.000000 33.932238 6.348884 22.507633 0 0 0
21 1 1 0.000000 20.164307 2.302483 34.490640 1 0 0
22 1 1 0.000000 36.806179 26.471332 4.462971 0 0 0
23 1 1 0.000000 14.204530 37.782293 34.036966 0 0 0
24 1 1 0.000000 3.375474 30.541054 31.457669 0 0 0
25 1 1 0.000000 27.458973 39.015703 34.924154 0 0 0
26 1 1 0.000000 8.482681 34.734481 20.826998 0 0 0
27 1 1 0.000000 30.130849 11.666952 19.538888 0 0 0
28 1 1 0.000000 31.129238 0.241675 4.107086 0 0 0
29 1 1 0.000000 32.867163 25.488339 37.155185 0 0 0
30 1 1 0.000000 5.190326 21.266798 21.432360 0 0 0
31 1 1 0.000000 22.696193 31.956391 14.405164 0 0 0
32 1 1 0.000000 21.077138 20.913028 10.546388 0 0 0
33 1 1 0.000000 23.147862 26.375883 35.240631 0 0 0
34 1 1 0.000000 26.469879 30.432935 25.258663 0 0 0
35 1 1 0.000000 4.975475 28.873387 7.478553 0 0 0
36 1 1 0.000000 36.029630 32.224567 19.937655 0 0 0
37 1 1 0.000000 32.960353 23.361678 24.418922 0 0 0
38 1 1 0.000000 38.484789 20.597065 33.914234 0 0 0
39 1 1 0.000000 15.795830 24.655144 37.843621 0 0 0
40 1 1 0.000000 3.268037 38.139022 25.844024 0 0 0
41 1 1 0.000000 29.254048 18.689769 20.342514 0 0 0
42 1 1 0.000000 19.959710 25.043481 3.998327 0 0 0
43 1 1 0.000000 27.438673 19.176311 30.926040 0 0 0
44 1 1 0.000000 24.496520 10.753038 31.782039 0 0 0
45 1 1 0.000000 29.821044 9.960546 4.980123 0 0 0
46 1 1 0.000000 1.084214 16.400692 10.010365 0 0 0
47 1 1 0.000000 8.912976 15.497353 36.680202 0 0 0
48 1 1 0.000000 9.133428 22.986046 34.906521 0 0 0
49 1 1 0.000000 11.040933 31.735326 37.600572 0 0 0
50 1 1 0.000000 2.807603 39.459438 39.893031 0 0 0
51 1 1 0.000000 2.930849 12.800726 17.196056 0 0 0
52 1 1 0.000000 9.349921 34.627962 29.034658 0 0 0
53 1 1 0.000000 16.424073 35.176231 26.228650 0 0 0
54 1 1 0.000000 24.009371 14.851316 15.074965 0 0 0
55 1 1 0.000000 0.269760 21.713884 15.579905 0 1 0
56 1 1 0.000000 34.382068 30.320509 26.918735 0 0 0
57 1 1 0.000000 38.447354 10.571901 26.572485 0 0 0
58 1 1 0.000000 9.808307 3.256601 36.391802 0 0 0
59 1 1 0.000000 23.916984 12.491466 8.202603 0 0 0
60 1 1 0.000000 30.152365 4.211789 10.637373 0 0 0
61 1 1 0.000000 31.561966 11.490400 34.739379 0 0 0
62 1 1 0.000000 21.751228 35.925282 31.298620 0 0 0
63 1 1 0.000000 38.832429 4.019995 8.985370 0 0 0
64 1 1 0.000000 16.058885 6.333329 39.040341 0 0 0
65 1 1 0.000000 38.073736 5.550685 16.259256 0 0 0
66 1 1 0.000000 28.698447 20.060747 13.408914 0 0 0
67 1 1 0.000000 15.645176 7.108693 30.668891 0 0 0
68 1 1 0.000000 24.541416 23.098128 24.671983 0 0 0
69 1 1 0.000000 14.280444 18.842166 12.963831 0 0 0
70 1 1 0.000000 36.377115 31.674861 34.088283 0 0 0
71 1 1 0.000000 23.001924 17.964043 37.671462 0 0 0
72 1 1 0.000000 23.494859 37.091411 19.592219 0 0 0
73 1 1 0.000000 13.460090 21.540444 20.188950 0 0 0
74 1 1 0.000000 38.770463 34.521071 4.443623 0 0 0
75 1 1 0.000000 4.383502 28.237043 24.163200 0 0 0
76 1 1 0.000000 23.932660 3.330344 26.225545 0 0 0
77 1 1 0.000000 18.664999 17.268705 4.736702 0 0 0
78 1 1 0.000000 28.628242 26.456945 18.724310 0 0 0
79 1 1 0.000000 4.503775 35.377493 11.004903 0 0 0
80 1 1 0.000000 35.833154 5.844284 31.721377 0 0 0
81 1 1 0.000000 4.207449 4.893256 31.701289 0 0 0
82 1 1 0.000000 2.803265 8.325426 38.105357 0 0 0
83 1 1 0.000000 3.727302 2.529254 19.392007 0 0 0
84 1 1 0.000000 15.538784 13.574089 39.551790 0 0 0
85 1 1 0.000000 4.256618 11.514971 4.383550 0 1 0
86 1 1 0.000000 13.267244 9.402376 12.102577 0 0 0
87 1 1 0.000000 1.076669 17.279033 25.977337 0 0 0
88 1 1 0.000000 4.039142 32.282951 38.957068 0 0 0
89 1 1 0.000000 4.673971 8.704308 11.171704 0 0 0
90 1 1 0.000000 1.748014 35.841880 17.606550 0 0 0
91 1 1 0.000000 25.887641 19.132001 4.710410 0 0 0
92 1 1 0.000000 13.726682 4.541458 6.101580 0 0 0
93 1 1 0.000000 28.682425 13.202987 26.387398 0 0 0
94 1 1 0.000000 31.052685 23.384886 7.145047 0 0 0
95 1 1 0.000000 0.769863 25.941548 38.281189 0 0 0
96 1 1 0.000000 36.915317 39.759463 22.092220 0 0 0

Bonds

1 1 1 37
2 1 31 59
3 1 1 61
4 1 38 87
5 1 8 82
6 1 43 72
7 1 26 35
8 1 36 70
9 1 8 40
10 1 43 87
11 1 44 96
12 1 50 53
13 1 87 91
14 1 30 86
15 1 5 17
16 1 47 84
17 1 54 80
18 1 51 95
19 1 22 79
20 1 5 65
21 1 45 55
22 1 5 6
23 1 29 42
24 1 34 68
25 1 59 62
26 1 41 54
27 1 79 82
28 1 46 60
29 1 62 65
30 1 26 79
31 1 9 83
32 1 10 71
33 1 36 75
34 1 42 77
35 1 14 59
36 1 7 94
37 1 1 55
38 1 16 45
39 1 2 21
40 1 32 45
41 1 42 47
42 1 17 29
43 1 10 35
44 1 34 53
45 1 6 96
46 1 64 77
47 1 14 71
48 1 37 38
49 1 16 55
50 1 13 16
51 1 20 65
52 1 9 22
53 1 39 43
54 1 51 66
55 1 21 88
56 1 37 47
57 1 25 83
58 1 12 91
59 1 26 94
60 1 27 69
61 1 54 76
62 1 34 58
63 1 2 62
64 1 51 92
65 1 6 90
66 1 13 90
67 1 81 88
68 1 33 71
69 1 24 49
70 1 3 13
71 1 58 64
72 1 21 67
73 1 19 76
74 1 61 70
75 1 64 89
76 1 15 48
77 1 67 81
78 1 14 70
79 1 23 25
80 1 50 88
81 1 40 56
82 1 46 66
83 1 18 82
84 1 60 91
85 1 48 52
86 1 57 72
87 1 4 80
88 1 68 78
89 1 38 67
90 1 63 74
91 1 15 68
92 1 24 63
93 1 63 80
94 1 58 75
95 1 30 73
96 1 29 96
97 1 53 61
98 1 2 78
99 1 41 72
100 1 8 57
101 1 10 89
102 1 24 83
103 1 52 84
104 1 39 44
105 1 20 50
106 1 23 52
107 1 3 23
108 1 3 60
109 1 31 35
110 1 27 28
111 1 18 22
112 1 12 33
113 1 75 78
114 1 36 69
115 1 39 40
116 1 20 90
117 1 15 77
118 1 4 27
119 1 25 57
120 1 48 86
121 1 9 17
122 1 46 86
123 1 73 84
124 1 7 81
125 1 56 76
126 1 28 95
127 1 85 94
128 1 32 33
129 1 4 19
130 1 41 56
131 1 66 93
132 1 28 92
133 1 69 73
134 1 31 89
135 1 7 92
136 1 12 18

