Generated by ZY code

187 atoms
1 atom types
266 bonds
1 bond types
0 angles
0 angle types
0 dihedrals
0 dihedral types
0 impropers
0 improper types

0.0000000000000000 50.0000000000000000 xlo xhi
0.0000000000000000 50.0000000000000000 ylo yhi
0.0000000000000000 50.0000000000000000 zlo zhi

Masses

1 1.000

Atoms # full

1 1 1 0.000000 46.998849 7.189916 23.469861 0 -1 0
2 1 1 0.000000 35.631433 36.292927 6.104204 0 0 1
3 1 1 0.000000 20.719920 6.695803 17.643566 0 0 0
4 1 1 0.000000 24.163190 4.606508 28.363220 1 0 0
5 1 1 0.000000 2.090688 25.615012 45.293837 0 0 0
6 1 1 0.000000 8.136813 8.559501 13.488189 0 0 0
7 1 1 0.000000 26.346300 36.309488 37.840813 0 0 0
8 1 1 0.000000 45.862443 31.863628 41.806304 0 0 0
9 1 1 0.000000 29.116902 44.811760 41.047882 0 0 0
10 1 1 0.000000 38.043079 42.344391 11.406724 0 0 0
11 1 1 0.000000 29.062481 38.841737 11.169088 0 0 0
12 1 1 0.000000 16.713544 42.146605 21.555296 0 0 0
13 1 1 0.000000 34.742563 7.674269 1.678523 0 0 0
14 1 1 0.000000 25.415918 27.447241 47.597475 0 0 -1
15 1 1 0.000000 1.821349 29.673965 26.567703 0 0 0
16 1 1 0.000000 24.636981 46.875227 12.283791 0 0 0
17 1 1 0.000000 11.350937 19.864573 13.027587 0 0 0
18 1 1 0.000000 26.226306 8.585995 49.631181 0 0 0
19 1 1 0.000000 21.591353 45.480769 28.124002 0 0 0
20 1 1 0.000000 35.403780 28.732833 19.536492 0 0 0
21 1 1 0.000000 7.159848 42.621615 40.580814 0 0 0
22 1 1 0.000000 12.969711 36.767090 7.542438 0 0 0
23 1 1 0.000000 2.924367 46.949399 34.619850 0 0 0
24 1 1 0.000000 28.175300 0.991257 5.457780 1 0 0
25 1 1 0.000000 4.896704 18.789613 35.144592 0 0 0
26 1 1 0.000000 39.837056 49.243925 36.732060 0 0 0
27 1 1 0.000000 11.006500 24.149682 29.761202 0 0 0
28 1 1 0.000000 33.729391 6.886707 36.056346 0 0 0
29 1 1 0.000000 40.100679 10.709747 8.185846 0 0 0
30 1 1 0.000000 11.862923 35.204669 16.705851 0 0 0
31 1 1 0.000000 49.489023 17.796422 48.486489 0 0 0
32 1 1 0.000000 11.875792 18.803716 21.783571 0 0 0
33 1 1 0.000000 34.756731 12.718108 14.909345 0 0 0
34 1 1 0.000000 48.418118 4.262389 35.977557 0 0 0
35 1 1 0.000000 31.294911 19.620559 36.436705 0 0 0
36 1 1 0.000000 16.048481 8.982013 32.371579 0 0 0
37 1 1 0.000000 25.809972 12.092931 33.275183 0 0 0
38 1 1 0.000000 35.959087 23.189958 28.798090 0 0 0
39 1 1 0.000000 20.406914 20.901821 31.609107 0 0 0
40 1 1 0.000000 45.013417 19.617694 6.463441 0 0 0
41 1 1 0.000000 33.570691 1.761328 43.801726 0 0 -1
42 1 1 0.000000 39.137749 10.418500 21.678432 0 0 0
43 1 1 0.000000 20.424927 30.644601 7.846585 0 0 0
44 1 1 0.000000 13.275981 1.710126 16.761804 1 0 0
45 1 1 0.000000 9.104449 27.631794 8.873852 0 0 0
46 1 1 0.000000 32.539998 44.054910 0.255361 0 0 1
47 1 1 0.000000 17.156621 7.628293 0.138554 0 0 0
48 1 1 0.000000 32.900049 12.510550 43.898847 0 0 0
49 1 1 0.000000 40.529334 34.926769 48.604092 0 0 0
50 1 1 0.000000 20.981487 40.390099 5.351843 0 0 0
51 1 1 0.000000 16.833632 27.318067 14.614117 0 0 0
52 1 1 0.000000 1.072473 43.794143 5.523535 0 1 0
53 1 1 0.000000 40.566023 33.320571 13.615590 0 0 0
54 1 1 0.000000 46.193826 48.959276 12.347858 0 -1 0
55 1 1 0.000000 23.635692 39.407163 46.236955 0 0 0
56 1 1 0.000000 10.274757 16.064440 3.512719 0 0 0
57 1 1 0.000000 19.307135 37.218235 32.306143 0 0 0
58 1 1 0.000000 27.295616 19.337551 0.560116 0 0 1
59 1 1 0.000000 9.562340 9.693087 45.206116 0 0 0
60 1 1 0.000000 11.111745 36.057925 25.959815 0 0 0
61 1 1 0.000000 15.878091 0.636865 43.559378 0 0 0
62 1 1 0.000000 29.774764 5.834523 12.670541 0 0 0
63 1 1 0.000000 33.729337 23.709190 43.719411 0 0 0
64 1 1 0.000000 48.195671 49.512116 27.881026 0 0 0
65 1 1 0.000000 16.481170 43.860656 12.756121 -1 0 0
66 1 1 0.000000 41.707019 43.467457 1.358331 0 0 0
67 1 1 0.000000 10.268982 14.622524 29.214138 0 0 0
68 1 1 0.000000 27.560086 33.828697 3.357971 0 0 0
69 1 1 0.000000 17.652168 33.957697 49.903519 0 0 -1
70 1 1 0.000000 25.273523 22.334210 9.659536 0 0 0
71 1 1 0.000000 43.443355 27.558451 23.478391 0 0 0
72 1 1 0.000000 16.501031 16.466185 47.227058 0 0 0
73 1 1 0.000000 41.182983 2.048960 49.266039 0 0 -1
74 1 1 0.000000 24.054108 26.229861 38.291652 0 1 -1
75 1 1 0.000000 0.900926 31.949864 1.411908 0 0 0
76 1 1 0.000000 43.099236 42.145919 30.204199 0 0 0
77 1 1 0.000000 32.521250 4.299824 23.709204 0 0 0
78 1 1 0.000000 12.947549 0.560450 34.946962 0 0 0
79 1 1 0.000000 7.653000 10.666689 37.094393 0 0 0
80 1 1 0.000000 48.599654 39.921775 47.322909 0 0 -1
81 1 1 0.000000 36.897094 18.760044 1.752218 0 0 1
82 1 1 0.000000 43.404864 25.024670 48.111656 0 -1 0
83 1 1 0.000000 5.129911 3.062796 20.542504 0 0 0
84 1 1 0.000000 37.123085 0.637563 7.525098 1 0 0
85 1 1 0.000000 11.464464 9.527822 22.005597 0 0 0
86 1 1 0.000000 31.905456 30.107822 33.680140 0 0 0
87 1 1 0.000000 36.671311 21.193436 10.153100 0 0 0
88 1 1 0.000000 29.604567 48.994095 32.906136 -1 0 0
89 1 1 0.000000 26.052222 7.513038 40.604176 0 0 0
90 1 1 0.000000 30.454603 13.490143 6.148835 0 0 0
91 1 1 0.000000 21.388032 14.952675 4.831207 0 0 1
92 1 1 0.000000 15.250381 41.884832 48.317682 0 0 0
93 1 1 0.000000 3.360127 35.185519 10.091552 0 0 0
94 1 1 0.000000 7.513850 42.766723 14.115923 0 0 0
95 1 1 0.000000 28.343158 12.163742 21.127725 0 0 0
96 1 1 0.000000 2.621015 34.724515 19.045965 0 0 0
97 1 1 0.000000 9.817295 26.418895 39.491988 0 0 0
98 1 1 0.000000 1.042201 11.761333 29.975226 0 1 0
99 1 1 0.000000 33.713236 12.539631 30.081801 0 0 0
100 1 1 0.000000 32.513843 47.380285 16.657094 0 0 0
101 1 1 0.000000 48.609224 2.503759 3.967871 0 -1 0
102 1 1 0.000000 17.380984 25.856458 24.124414 -1 0 0
103 1 1 0.000000 43.206319 11.453340 49.912046 0 0 0
104 1 1 0.000000 45.022625 32.903458 31.988519 0 0 0
105 1 1 0.000000 19.792489 19.208656 17.515462 0 0 0
106 1 1 0.000000 44.870968 15.908832 25.507491 0 0 0
107 1 1 0.000000 41.792531 46.689078 20.530061 0 0 0
108 1 1 0.000000 16.680221 29.412817 34.565110 0 0 0
109 1 1 0.000000 13.857125 18.608878 37.381931 0 0 0
110 1 1 0.000000 19.600668 34.230387 23.890943 0 0 0
111 1 1 0.000000 48.163599 12.648397 38.782084 0 -1 0
112 1 1 0.000000 25.728802 39.994435 20.161032 0 0 0
113 1 1 0.000000 37.883765 19.947440 20.934375 0 0 0
114 1 1 0.000000 24.503004 49.347068 21.019788 0 0 0
115 1 1 0.000000 12.012950 41.954482 33.030273 0 0 0
116 1 1 0.000000 3.110840 18.108128 12.099496 0 0 0
117 1 1 0.000000 0.772174 26.879323 11.211607 0 0 0
118 1 1 0.000000 41.154580 27.788894 6.059834 0 0 0
119 1 1 0.000000 29.513819 20.193100 18.159575 0 0 0
120 1 1 0.000000 6.269771 33.743969 43.031983 0 0 0
121 1 1 0.000000 3.464269 20.652785 27.158419 0 0 0
122 1 1 0.000000 0.384046 8.189688 45.797414 0 1 0
123 1 1 0.000000 11.308303 45.141539 6.161876 0 0 0
124 1 1 0.000000 3.400275 13.069426 20.365885 0 1 0
125 1 1 0.000000 48.195698 49.370985 44.452242 0 0 0
126 1 1 0.000000 6.147023 2.726653 41.408950 0 0 0
127 1 1 0.000000 36.135901 39.302972 19.871635 0 0 0
128 1 1 0.000000 27.009681 36.715848 28.161901 0 0 0
129 1 1 0.000000 40.894281 17.200223 43.395653 0 0 0
130 1 1 0.000000 26.376995 29.000278 19.449344 0 0 0
131 1 1 0.000000 35.025430 42.528713 33.499955 0 0 0
132 1 1 0.000000 45.157108 22.961281 30.713095 0 -1 0
133 1 1 0.000000 13.796397 3.591425 6.928289 0 0 0
134 1 1 0.000000 38.433378 0.343621 28.200054 1 0 0
135 1 1 0.000000 3.728683 22.949554 3.967014 0 0 0
136 1 1 0.000000 2.219458 39.333152 29.157957 0 1 0
137 1 1 0.000000 8.911458 27.340179 19.952863 0 0 0
138 1 1 0.000000 17.336623 22.521818 3.072717 0 0 0
139 1 1 0.000000 7.349590 4.886890 29.648693 0 0 0
140 1 1 0.000000 5.087761 0.661596 9.277810 1 0 0
141 1 1 0.000000 7.347041 38.820891 0.062031 0 0 0
142 1 1 0.000000 23.187275 17.495967 40.870831 0 0 0
143 1 1 0.000000 15.229957 12.340541 10.737063 0 0 0
144 1 1 0.000000 41.648264 8.284013 31.977694 1 0 0
145 1 1 0.000000 25.405919 14.025895 13.441129 0 0 0
146 1 1 0.000000 39.806192 5.182091 15.197327 0 0 0
147 1 1 0.000000 45.887206 39.905045 14.348903 0 0 0
148 1 1 0.000000 39.837403 26.384840 37.351006 0 0 0
149 1 1 0.000000 30.018835 29.980942 11.142864 0 0 0
150 1 1 0.000000 0.701296 22.715866 18.998445 0 1 0
151 1 1 0.000000 1.889749 28.031757 34.917237 0 1 0
152 1 1 0.000000 45.161900 15.055867 16.354146 0 0 0
153 1 1 0.000000 14.767749 0.996978 25.568049 1 0 0
154 1 1 0.000000 38.319824 35.284373 39.378118 0 0 0
155 1 1 0.000000 21.473183 1.398007 36.483748 0 0 0
156 1 1 0.000000 32.516317 26.443416 2.873859 0 0 1
157 1 1 0.000000 47.409398 21.369394 39.599893 0 0 0
158 1 1 0.000000 17.587817 10.550152 40.804029 0 0 0
159 1 1 0.000000 6.652101 48.522641 48.802933 0 0 0
160 1 1 0.000000 22.137114 6.629112 8.098248 0 0 0
161 1 1 0.000000 15.362934 35.099243 41.299137 0 0 0
162 1 1 0.000000 30.729068 45.224706 25.039844 0 0 0
163 1 1 0.000000 20.917814 35.434216 15.304676 0 0 0
164 1 1 0.000000 7.421683 45.686190 25.908101 0 0 0
165 1 1 0.000000 42.020178 6.464450 41.759687 0 0 0
166 1 1 0.000000 24.602167 0.115613 46.612052 1 0 -1
167 1 1 0.000000 36.609015 34.341348 27.587219 0 0 0
168 1 1 0.000000 47.770212 39.840735 38.321498 0 -1 0
169 1 1 0.000000 39.877766 17.263496 34.874554 0 0 0
170 1 1 0.000000 38.418644 43.422843 42.898485 0 0 0
171 1 1 0.000000 44.755342 36.110750 6.302439 0 0 0
172 1 1 0.000000 31.960291 35.977434 45.380559 0 0 0
173 1 1 0.000000 10.199553 26.642313 49.547704 0 0 -1
174 1 1 0.000000 0.665461 45.165386 19.694295 0 1 0
175 1 1 0.000000 8.152381 34.038141 34.171311 0 1 0
176 1 1 0.000000 48.406734 7.142469 13.216080 0 0 0
177 1 1 0.000000 19.158450 43.148574 39.236395 -1 0 0
178 1 1 0.000000 44.077704 36.174462 23.155608 0 0 0
179 1 1 0.000000 6.637964 7.864517 3.114203 0 0 0
180 1 1 0.000000 25.478066 28.384374 28.079933 0 0 0
181 1 1 0.000000 49.822210 12.543490 6.246520 0 -1 0
182 1 1 0.000000 27.817244 18.881517 28.146921 0 0 0
183 1 1 0.000000 43.274028 24.419044 15.245678 0 0 0
184 1 1 0.000000 19.654524 13.337942 25.530958 0 0 0
185 1 1 0.000000 19.376252 48.452196 3.409425 -1 0 0
186 1 1 0.000000 8.157735 19.187507 44.448182 0 0 0
187 1 1 0.000000 17.678725 24.508170 44.487700 0 0 0

Bonds

1 1 18 95
2 1 37 86
3 1 39 150
4 1 40 66
5 1 54 116
6 1 3 52
7 1 159 162
8 1 36 88
9 1 75 133
10 1 54 181
11 1 164 174
12 1 27 37
13 1 39 65
14 1 124 143
15 1 47 143
16 1 62 182
17 1 32 138
18 1 4 146
19 1 77 88
20 1 115 126
21 1 25 152
22 1 79 164
23 1 18 44
24 1 24 166
25 1 124 142
26 1 110 169
27 1 11 141
28 1 18 133
29 1 15 106
30 1 49 82
31 1 78 80
32 1 126 144
33 1 122 144
34 1 4 158
35 1 76 88
36 1 89 159
37 1 69 110
38 1 133 163
39 1 58 155
40 1 2 66
41 1 77 162
42 1 19 180
43 1 68 72
44 1 17 108
45 1 40 168
46 1 124 153
47 1 108 152
48 1 62 155
49 1 53 135
50 1 89 180
51 1 27 182
52 1 97 111
53 1 11 84
54 1 36 90
55 1 67 70
56 1 20 29
57 1 93 149
58 1 26 125
59 1 44 107
60 1 39 119
61 1 20 82
62 1 45 122
63 1 125 177
64 1 91 139
65 1 32 83
66 1 64 184
67 1 80 131
68 1 117 180
69 1 35 130
70 1 51 183
71 1 141 144
72 1 117 120
73 1 96 117
74 1 94 128
75 1 37 126
76 1 2 24
77 1 4 168
78 1 153 162
79 1 72 129
80 1 146 184
81 1 9 19
82 1 102 121
83 1 136 150
84 1 74 128
85 1 25 93
86 1 85 115
87 1 109 173
88 1 77 186
89 1 48 99
90 1 53 54
91 1 105 122
92 1 12 65
93 1 19 91
94 1 26 33
95 1 85 177
96 1 16 161
97 1 82 182
98 1 21 101
99 1 112 177
100 1 166 171
101 1 87 160
102 1 92 109
103 1 135 151
104 1 16 66
105 1 6 160
106 1 100 125
107 1 173 174
108 1 16 71
109 1 71 93
110 1 8 72
111 1 79 143
112 1 33 134
113 1 95 184
114 1 139 171
115 1 25 116
116 1 23 127
117 1 84 145
118 1 83 121
119 1 87 90
120 1 14 141
121 1 27 151
122 1 108 113
123 1 35 86
124 1 57 78
125 1 78 85
126 1 26 48
127 1 81 106
128 1 15 166
129 1 80 116
130 1 63 165
131 1 86 134
132 1 65 91
133 1 13 179
134 1 53 96
135 1 81 181
136 1 110 148
137 1 155 168
138 1 52 175
139 1 47 123
140 1 61 79
141 1 123 181
142 1 58 171
143 1 129 157
144 1 140 152
145 1 31 40
146 1 14 149
147 1 100 114
148 1 44 83
149 1 3 29
150 1 73 161
151 1 49 52
152 1 3 90
153 1 102 178
154 1 111 179
155 1 70 173
156 1 99 127
157 1 46 176
158 1 47 140
159 1 87 142
160 1 50 118
161 1 56 179
162 1 23 178
163 1 55 94
164 1 118 135
165 1 71 163
166 1 33 105
167 1 28 131
168 1 102 174
169 1 11 70
170 1 92 167
171 1 38 136
172 1 95 134
173 1 36 185
174 1 45 147
175 1 105 185
176 1 100 130
177 1 84 109
178 1 21 115
179 1 5 15
180 1 128 183
181 1 138 145
182 1 35 38
183 1 103 142
184 1 23 151
185 1 58 164
186 1 99 157
187 1 20 74
188 1 132 175
189 1 43 119
190 1 42 75
191 1 64 98
192 1 13 146
193 1 97 159
194 1 1 112
195 1 60 92
196 1 7 24
197 1 57 104
198 1 29 114
199 1 68 120
200 1 62 147
201 1 172 187
202 1 7 69
203 1 10 120
204 1 123 163
205 1 43 68
206 1 41 46
207 1 5 157
208 1 38 104
209 1 8 178
210 1 63 113
211 1 112 161
212 1 12 167
213 1 121 156
214 1 10 101
215 1 45 98
216 1 42 156
217 1 55 74
218 1 137 139
219 1 131 150
220 1 98 165
221 1 5 30
222 1 17 158
223 1 42 81
224 1 69 153
225 1 10 137
226 1 176 183
227 1 75 111
228 1 2 9
229 1 127 185
230 1 119 148
231 1 64 147
232 1 106 154
233 1 7 154
234 1 22 148
235 1 22 32
236 1 97 136
237 1 41 165
238 1 1 113
239 1 63 103
240 1 8 132
241 1 13 34
242 1 34 158
243 1 28 46
244 1 31 34
245 1 12 17
246 1 132 172
247 1 101 160
248 1 43 89
249 1 51 57
250 1 130 176
251 1 6 186
252 1 76 96
253 1 30 49
254 1 137 167
255 1 59 169
256 1 76 107
257 1 73 175
258 1 61 156
259 1 118 154
260 1 51 172
261 1 67 103
262 1 14 30
263 1 9 41
264 1 94 149
265 1 55 140
266 1 129 170

