Generated by ZY

187 atoms
1 atom types
266 bonds
1 bond types

0.0000000000000000 50.0000000000000000 xlo xhi
0.0000000000000000 50.0000000000000000 ylo yhi
0.0000000000000000 50.0000000000000000 zlo zhi

Masses

1 1.000

Atoms # full

1 1 1 0.000000 40.534446 24.895138 24.889939 0 0 0
2 1 1 0.000000 49.283474 5.527583 38.400014 0 -1 0
3 1 1 0.000000 33.437398 44.344846 24.744387 0 0 0
4 1 1 0.000000 5.148300 22.446149 6.644377 0 0 0
5 1 1 0.000000 27.711595 2.579853 13.270300 0 0 0
6 1 1 0.000000 37.352890 23.820949 12.368115 0 0 0
7 1 1 0.000000 29.570694 36.847847 31.877508 0 0 0
8 1 1 0.000000 36.640009 35.748371 27.477996 0 0 0
9 1 1 0.000000 20.218531 1.650215 29.510690 0 0 0
10 1 1 0.000000 23.393542 4.783606 22.440924 0 0 0
11 1 1 0.000000 4.130837 17.795727 12.222021 0 0 0
12 1 1 0.000000 17.424728 29.522513 10.271654 0 0 0
13 1 1 0.000000 40.135377 4.545995 30.514794 0 0 0
14 1 1 0.000000 28.417204 33.575163 24.351239 0 0 0
15 1 1 0.000000 6.442455 21.907581 49.266383 0 0 -1
16 1 1 0.000000 25.959395 11.327139 5.071740 0 0 0
17 1 1 0.000000 10.542922 31.863378 41.893568 0 0 0
18 1 1 0.000000 48.837587 21.150618 32.162935 0 -1 0
19 1 1 0.000000 18.272631 43.039821 22.585748 0 0 0
20 1 1 0.000000 23.470046 25.250106 0.632035 0 0 0
21 1 1 0.000000 8.742885 38.993391 34.168792 0 0 0
22 1 1 0.000000 10.704808 20.252162 36.100430 0 0 0
23 1 1 0.000000 29.926687 34.225493 5.678661 0 0 0
24 1 1 0.000000 46.822499 11.761108 44.483135 0 0 0
25 1 1 0.000000 10.152943 31.709733 9.135812 0 0 0
26 1 1 0.000000 48.323612 36.891822 47.247187 0 -1 0
27 1 1 0.000000 33.854447 49.778944 7.167683 -1 0 0
28 1 1 0.000000 28.336758 22.313796 43.311120 0 0 0
29 1 1 0.000000 6.527822 36.533624 21.716641 0 0 0
30 1 1 0.000000 3.654430 33.929778 43.239229 0 0 0
31 1 1 0.000000 3.146220 46.763940 37.965939 0 0 0
32 1 1 0.000000 26.796912 35.707251 17.022437 0 0 0
33 1 1 0.000000 14.352065 38.024821 8.915199 0 0 0
34 1 1 0.000000 13.062279 48.495831 3.030191 0 0 0
35 1 1 0.000000 32.613353 8.512032 1.476984 0 0 0
36 1 1 0.000000 29.106791 46.885830 39.274485 0 0 0
37 1 1 0.000000 38.774172 45.673724 13.601525 0 0 0
38 1 1 0.000000 35.933382 5.498534 24.424325 0 0 0
39 1 1 0.000000 40.519500 42.425195 34.322744 0 0 0
40 1 1 0.000000 31.621555 34.107218 42.958676 0 0 0
41 1 1 0.000000 32.607463 8.324359 11.262126 0 0 0
42 1 1 0.000000 13.559999 8.878073 5.312109 0 0 0
43 1 1 0.000000 30.326269 41.414191 44.988707 0 0 0
44 1 1 0.000000 11.901241 24.289129 45.023502 0 0 0
45 1 1 0.000000 27.190903 48.329615 46.527139 0 0 0
46 1 1 0.000000 27.755006 1.032377 27.536624 0 0 0
47 1 1 0.000000 2.314255 3.751243 21.318671 0 0 0
48 1 1 0.000000 8.983358 39.581251 43.917605 0 0 0
49 1 1 0.000000 11.946427 4.477709 48.763030 0 0 -1
50 1 1 0.000000 49.457026 28.474652 8.081179 0 0 0
51 1 1 0.000000 39.253175 13.150468 1.465478 0 0 0
52 1 1 0.000000 40.033717 1.047155 42.310762 1 0 0
53 1 1 0.000000 41.332680 9.985523 8.712209 0 0 0
54 1 1 0.000000 15.941559 20.102144 18.893541 0 0 0
55 1 1 0.000000 7.788080 0.219762 15.893237 1 0 0
56 1 1 0.000000 34.947740 47.542395 47.952780 0 0 0
57 1 1 0.000000 40.292390 24.056153 1.856770 0 0 0
58 1 1 0.000000 9.184072 15.973857 3.011473 0 0 0
59 1 1 0.000000 20.739945 15.017339 27.440623 0 0 0
60 1 1 0.000000 3.667176 47.054695 30.451396 0 0 0
61 1 1 0.000000 15.873330 17.799881 47.537579 0 0 0
62 1 1 0.000000 10.445487 27.267069 3.168556 0 0 0
63 1 1 0.000000 14.886395 14.652892 10.243021 0 0 0
64 1 1 0.000000 29.449931 26.449455 21.121209 0 0 0
65 1 1 0.000000 24.088333 36.503063 43.061640 0 0 0
66 1 1 0.000000 34.803189 38.591426 16.418284 0 0 0
67 1 1 0.000000 4.968563 24.877903 41.845158 0 0 0
68 1 1 0.000000 28.600463 44.983717 10.693856 0 0 0
69 1 1 0.000000 14.379069 15.927437 40.536058 0 0 0
70 1 1 0.000000 17.254794 4.997520 36.051263 0 0 0
71 1 1 0.000000 34.075849 13.731481 39.731526 0 0 0
72 1 1 0.000000 2.066532 39.325380 38.325916 0 0 0
73 1 1 0.000000 4.495213 11.439702 45.163763 0 0 0
74 1 1 0.000000 40.032211 35.889165 11.551173 0 0 0
75 1 1 0.000000 47.136097 14.480866 25.865678 0 0 0
76 1 1 0.000000 28.808979 40.981490 2.835383 0 0 0
77 1 1 0.000000 40.032227 8.084654 18.343536 0 0 0
78 1 1 0.000000 43.627139 49.917248 49.030487 0 0 0
79 1 1 0.000000 26.401386 16.179662 39.062467 0 0 0
80 1 1 0.000000 34.649993 13.989167 7.263936 0 0 0
81 1 1 0.000000 40.441612 17.274692 10.843317 0 0 0
82 1 1 0.000000 8.806237 47.386476 43.526120 -1 0 0
83 1 1 0.000000 32.570005 28.284390 9.233260 0 0 0
84 1 1 0.000000 26.891022 47.871156 3.790436 0 0 0
85 1 1 0.000000 11.728008 9.349525 42.636014 0 0 0
86 1 1 0.000000 27.054188 15.057916 19.229784 0 0 0
87 1 1 0.000000 5.717027 7.701394 1.685698 0 0 0
88 1 1 0.000000 9.731782 3.275650 23.720078 0 0 0
89 1 1 0.000000 18.858190 20.223163 34.784820 0 0 0
90 1 1 0.000000 30.446493 15.829715 46.388318 0 0 0
91 1 1 0.000000 18.467905 33.099953 38.556939 0 0 0
92 1 1 0.000000 23.064458 42.142140 15.863815 0 0 0
93 1 1 0.000000 49.493515 5.995304 6.065782 0 0 0
94 1 1 0.000000 9.003480 4.617054 36.015338 0 0 0
95 1 1 0.000000 42.634425 33.881032 3.114497 0 0 0
96 1 1 0.000000 0.426902 9.356271 14.132978 0 1 0
97 1 1 0.000000 30.157817 18.466369 25.908752 0 0 0
98 1 1 0.000000 19.514021 2.239749 48.026604 0 0 -1
99 1 1 0.000000 8.620133 3.118363 7.896996 0 0 0
100 1 1 0.000000 4.670487 34.188813 14.086737 0 0 0
101 1 1 0.000000 41.828991 28.342929 8.337957 0 0 0
102 1 1 0.000000 18.485855 22.681522 41.997106 0 0 0
103 1 1 0.000000 41.973538 11.365869 38.817460 0 0 0
104 1 1 0.000000 10.505820 47.109993 35.640284 0 0 0
105 1 1 0.000000 29.688694 9.101506 22.810837 0 0 0
106 1 1 0.000000 29.523781 17.674539 3.362247 0 0 0
107 1 1 0.000000 32.538828 3.427836 42.471058 1 0 0
108 1 1 0.000000 36.988853 11.172552 33.020293 0 0 0
109 1 1 0.000000 4.490765 0.232444 49.898502 0 0 0
110 1 1 0.000000 0.278432 1.110120 13.876615 0 0 0
111 1 1 0.000000 48.483673 43.532414 10.710083 0 0 0
112 1 1 0.000000 13.493132 8.384860 15.780175 0 0 0
113 1 1 0.000000 34.735583 13.467159 17.514797 0 0 0
114 1 1 0.000000 2.913082 28.477515 1.386545 0 0 0
115 1 1 0.000000 49.746422 32.805023 21.116454 0 -1 0
116 1 1 0.000000 25.866542 22.785619 32.192222 0 0 0
117 1 1 0.000000 42.298512 0.020178 6.349345 0 0 0
118 1 1 0.000000 33.216711 1.664350 32.719905 0 0 0
119 1 1 0.000000 37.621306 18.272901 28.197713 0 0 0
120 1 1 0.000000 16.566189 8.078349 23.051131 0 0 0
121 1 1 0.000000 31.761908 47.046742 17.219256 0 0 0
122 1 1 0.000000 43.103477 19.001904 41.025049 0 0 0
123 1 1 0.000000 49.278252 5.316337 47.484911 0 -1 0
124 1 1 0.000000 17.186202 22.057421 27.301820 0 0 0
125 1 1 0.000000 30.680250 20.012874 10.374534 0 0 0
126 1 1 0.000000 2.211739 27.821439 30.077091 0 0 0
127 1 1 0.000000 36.912151 35.164358 48.330738 0 0 0
128 1 1 0.000000 18.922802 5.613913 10.964831 0 0 0
129 1 1 0.000000 21.034368 24.489370 14.578398 0 0 0
130 1 1 0.000000 37.553055 17.999964 46.063329 0 0 0
131 1 1 0.000000 39.366859 41.081614 5.204674 0 0 0
132 1 1 0.000000 11.314760 17.286175 25.305733 0 1 0
133 1 1 0.000000 15.143928 21.450161 4.049081 0 0 0
134 1 1 0.000000 12.071160 39.461840 26.155759 0 0 0
135 1 1 0.000000 24.088990 26.607310 38.811334 0 0 0
136 1 1 0.000000 25.154353 10.857811 44.492979 0 0 0
137 1 1 0.000000 47.403690 35.571577 12.633687 0 0 0
138 1 1 0.000000 39.807161 3.507141 12.345631 0 0 0
139 1 1 0.000000 5.721529 4.140170 43.046330 0 0 0
140 1 1 0.000000 21.429992 11.418703 34.349688 0 0 0
141 1 1 0.000000 48.376312 49.405998 42.944492 0 -1 0
142 1 1 0.000000 26.532149 12.918718 12.128184 0 0 0
143 1 1 0.000000 3.111318 7.979810 29.602156 0 0 0
144 1 1 0.000000 43.064226 6.858238 1.571456 0 0 0
145 1 1 0.000000 21.020541 10.357622 16.532677 0 0 0
146 1 1 0.000000 6.685616 28.608893 23.417330 0 0 0
147 1 1 0.000000 33.849761 4.207317 17.269673 0 0 0
148 1 1 0.000000 14.033712 46.009331 9.850030 0 0 0
149 1 1 0.000000 38.603784 22.474475 34.764423 0 0 0
150 1 1 0.000000 26.714219 8.298732 29.737617 0 0 0
151 1 1 0.000000 20.207899 1.101280 5.373732 0 0 0
152 1 1 0.000000 5.028881 15.262264 31.749240 0 0 0
153 1 1 0.000000 16.233109 38.140619 46.081623 0 0 0
154 1 1 0.000000 21.717472 33.119415 0.642012 0 0 0
155 1 1 0.000000 15.274835 41.562793 15.701600 0 0 0
156 1 1 0.000000 1.024646 18.688884 45.276648 0 0 0
157 1 1 0.000000 10.075692 15.686174 16.350834 0 0 0
158 1 1 0.000000 48.385807 28.844136 45.212951 0 0 0
159 1 1 0.000000 22.387729 23.718654 22.037815 0 0 0
160 1 1 0.000000 9.456568 44.005482 20.038143 0 0 0
161 1 1 0.000000 46.729073 8.733717 20.909623 0 0 0
162 1 1 0.000000 8.220305 34.196247 49.961431 0 0 0
163 1 1 0.000000 36.728869 21.144508 19.279945 0 0 0
164 1 1 0.000000 22.450107 15.552597 0.411001 0 0 0
165 1 1 0.000000 3.421477 35.112194 30.206291 0 0 0
166 1 1 0.000000 27.290987 4.535786 6.200240 0 0 0
167 1 1 0.000000 4.791661 10.780604 37.603278 0 0 0
168 1 1 0.000000 16.046789 45.739765 41.804324 0 0 0
169 1 1 0.000000 21.383639 44.314906 8.551043 0 0 0
170 1 1 0.000000 17.679159 9.812503 48.725462 0 0 0
171 1 1 0.000000 2.187157 43.403218 45.449382 0 0 0
172 1 1 0.000000 18.810121 45.233285 34.482880 0 0 0
173 1 1 0.000000 6.353564 11.253687 8.418697 0 0 0
174 1 1 0.000000 39.258124 43.345060 43.206752 0 0 0
175 1 1 0.000000 44.400018 42.718651 48.943280 0 0 0
176 1 1 0.000000 40.694228 36.120147 41.333741 0 0 0
177 1 1 0.000000 3.629757 18.952515 24.892635 0 0 0
178 1 1 0.000000 19.438944 49.053311 15.545087 0 0 0
179 1 1 0.000000 49.709145 23.849421 14.774567 0 -1 0
180 1 1 0.000000 29.305062 14.799921 32.412996 0 0 0
181 1 1 0.000000 1.038810 37.503987 5.807174 0 0 0
182 1 1 0.000000 34.364721 38.929576 37.474980 0 0 0
183 1 1 0.000000 25.131408 27.760106 7.812040 0 0 0
184 1 1 0.000000 16.935643 29.860766 45.550257 0 0 0
185 1 1 0.000000 0.335707 16.850228 18.650791 0 0 0
186 1 1 0.000000 8.119627 43.478439 0.532600 0 0 1
187 1 1 0.000000 7.193803 22.469792 30.273890 0 0 0

Bonds

1 1 68 76
2 1 29 127
3 1 115 126
4 1 11 161
5 1 104 186
6 1 92 186
7 1 3 27
8 1 109 139
9 1 4 33
10 1 54 108
11 1 101 173
12 1 25 72
13 1 28 89
14 1 6 115
15 1 7 154
16 1 34 104
17 1 174 182
18 1 12 78
19 1 36 55
20 1 6 41
21 1 33 117
22 1 59 157
23 1 55 158
24 1 94 173
25 1 45 126
26 1 2 103
27 1 5 14
28 1 21 49
29 1 129 145
30 1 4 72
31 1 17 155
32 1 54 148
33 1 33 145
34 1 67 140
35 1 49 104
36 1 41 147
37 1 2 143
38 1 8 149
39 1 141 177
40 1 85 158
41 1 9 136
42 1 82 165
43 1 4 37
44 1 63 161
45 1 18 90
46 1 16 92
47 1 34 111
48 1 31 182
49 1 3 110
50 1 34 112
51 1 170 172
52 1 128 134
53 1 65 149
54 1 93 148
55 1 31 176
56 1 68 129
57 1 74 83
58 1 51 119
59 1 13 96
60 1 18 167
61 1 16 163
62 1 3 111
63 1 92 120
64 1 133 153
65 1 121 132
66 1 44 100
67 1 97 106
68 1 87 109
69 1 84 144
70 1 96 122
71 1 32 91
72 1 66 154
73 1 80 125
74 1 76 127
75 1 17 49
76 1 87 167
77 1 121 123
78 1 20 187
79 1 80 138
80 1 79 108
81 1 47 71
82 1 36 69
83 1 134 148
84 1 50 181
85 1 120 157
86 1 73 187
87 1 39 139
88 1 10 121
89 1 106 182
90 1 85 132
91 1 164 166
92 1 82 178
93 1 76 107
94 1 82 93
95 1 106 122
96 1 10 32
97 1 71 101
98 1 26 62
99 1 46 111
100 1 161 179
101 1 28 44
102 1 32 44
103 1 18 47
104 1 65 169
105 1 118 159
106 1 131 144
107 1 53 152
108 1 101 147
109 1 59 138
110 1 6 169
111 1 66 128
112 1 146 186
113 1 136 166
114 1 90 170
115 1 66 131
116 1 57 162
117 1 60 145
118 1 36 95
119 1 13 123
120 1 35 142
121 1 124 159
122 1 46 113
123 1 114 158
124 1 59 86
125 1 153 172
126 1 1 30
127 1 54 69
128 1 89 120
129 1 10 63
130 1 19 147
131 1 58 109
132 1 48 96
133 1 40 166
134 1 14 116
135 1 60 77
136 1 13 78
137 1 15 112
138 1 137 163
139 1 105 152
140 1 26 93
141 1 43 117
142 1 55 185
143 1 64 134
144 1 19 39
145 1 26 118
146 1 42 170
147 1 89 139
148 1 142 184
149 1 68 81
150 1 19 154
151 1 56 65
152 1 98 187
153 1 123 162
154 1 1 152
155 1 27 62
156 1 99 141
157 1 118 137
158 1 84 128
159 1 83 137
160 1 22 94
161 1 29 174
162 1 75 146
163 1 105 107
164 1 5 41
165 1 135 140
166 1 164 183
167 1 22 138
168 1 112 113
169 1 12 135
170 1 77 119
171 1 87 117
172 1 31 75
173 1 90 164
174 1 1 146
175 1 25 30
176 1 133 179
177 1 56 84
178 1 5 47
179 1 171 181
180 1 133 140
181 1 113 131
182 1 28 98
183 1 46 150
184 1 30 184
185 1 17 160
186 1 102 135
187 1 67 162
188 1 100 132
189 1 22 165
190 1 102 168
191 1 9 174
192 1 99 178
193 1 73 119
194 1 16 52
195 1 45 150
196 1 60 165
197 1 52 142
198 1 23 153
199 1 70 85
200 1 80 178
201 1 37 56
202 1 98 184
203 1 7 70
204 1 107 127
205 1 115 185
206 1 71 136
207 1 75 105
208 1 48 100
209 1 173 179
210 1 149 157
211 1 122 129
212 1 94 143
213 1 95 176
214 1 39 175
215 1 27 168
216 1 168 180
217 1 8 126
218 1 88 185
219 1 24 62
220 1 74 181
221 1 20 155
222 1 50 156
223 1 14 108
224 1 124 155
225 1 50 143
226 1 40 45
227 1 88 144
228 1 79 116
229 1 151 167
230 1 29 37
231 1 7 141
232 1 81 130
233 1 91 110
234 1 64 163
235 1 12 38
236 1 102 156
237 1 2 73
238 1 42 70
239 1 130 183
240 1 95 130
241 1 67 156
242 1 15 48
243 1 83 110
244 1 151 177
245 1 11 25
246 1 20 42
247 1 51 183
248 1 24 52
249 1 43 51
250 1 21 177
251 1 24 53
252 1 11 63
253 1 38 88
254 1 116 180
255 1 150 175
256 1 23 91
257 1 8 43
258 1 21 23
259 1 61 69
260 1 77 81
261 1 9 172
262 1 103 151
263 1 74 114
264 1 97 180
265 1 97 124
266 1 35 176

