Generated by ZY code

187 atoms
1 atom types
266 bonds
1 bond types
0 angles
0 angle types
0 dihedrals
0 dihedral types
0 impropers
0 improper types

0.0000000000000000 50.0000000000000000 xlo xhi
0.0000000000000000 50.0000000000000000 ylo yhi
0.0000000000000000 50.0000000000000000 zlo zhi

Masses

1 1.000

Atoms # full

1 1 1 0.000000 12.626272 4.778457 4.996249 0 0 0
2 1 1 0.000000 38.555551 9.118073 25.837755 0 0 0
3 1 1 0.000000 27.452464 19.896046 31.517286 0 0 0
4 1 1 0.000000 44.847232 1.088498 43.312367 0 0 0
5 1 1 0.000000 24.460965 24.191945 36.980717 0 0 0
6 1 1 0.000000 3.524369 23.933637 32.664286 0 0 0
7 1 1 0.000000 5.805005 7.742298 1.727800 0 0 1
8 1 1 0.000000 28.970158 31.477027 39.292101 0 0 0
9 1 1 0.000000 44.582008 49.386871 5.862114 0 0 0
10 1 1 0.000000 24.461592 29.857805 16.571262 0 0 0
11 1 1 0.000000 4.690168 39.252514 48.650702 0 0 0
12 1 1 0.000000 14.132977 23.201266 10.728733 0 0 0
13 1 1 0.000000 20.685603 46.446827 5.833018 0 0 0
14 1 1 0.000000 41.696268 30.092684 12.941428 0 0 0
15 1 1 0.000000 33.700212 13.292469 19.379170 0 0 0
16 1 1 0.000000 46.699802 6.168865 6.768621 0 0 0
17 1 1 0.000000 26.237941 47.848548 29.487535 0 0 0
18 1 1 0.000000 7.911440 48.603180 0.989464 0 0 0
19 1 1 0.000000 32.796670 4.929072 6.393590 0 0 0
20 1 1 0.000000 30.849143 43.817823 25.422481 0 0 0
21 1 1 0.000000 47.032203 46.472504 48.696298 0 0 -1
22 1 1 0.000000 8.269765 1.458655 42.612694 0 0 0
23 1 1 0.000000 38.579102 20.752763 24.308190 0 0 0
24 1 1 0.000000 36.961980 20.456911 11.481817 0 0 0
25 1 1 0.000000 24.810332 38.754575 28.068523 0 0 0
26 1 1 0.000000 44.476689 23.643524 11.249772 0 0 0
27 1 1 0.000000 18.434092 34.461265 26.534047 0 0 0
28 1 1 0.000000 25.846066 31.049012 31.181351 0 0 0
29 1 1 0.000000 42.223693 42.612640 8.398255 0 0 0
30 1 1 0.000000 13.951680 19.271865 27.179288 0 0 0
31 1 1 0.000000 14.540394 32.179697 9.486789 0 0 0
32 1 1 0.000000 39.079665 30.184333 6.119710 0 0 0
33 1 1 0.000000 26.820896 12.023484 33.266220 0 0 0
34 1 1 0.000000 21.845078 30.912091 7.225534 0 0 0
35 1 1 0.000000 34.213505 35.405003 4.729753 0 0 0
36 1 1 0.000000 42.185968 1.680397 20.532251 0 0 0
37 1 1 0.000000 31.644527 27.159042 33.703962 0 0 0
38 1 1 0.000000 14.762063 19.453698 17.309418 0 0 0
39 1 1 0.000000 0.804317 41.057257 17.476612 0 0 0
40 1 1 0.000000 17.416160 38.661933 20.219745 0 0 0
41 1 1 0.000000 20.207972 45.721697 22.791750 0 0 0
42 1 1 0.000000 11.768182 28.310876 36.268523 0 0 0
43 1 1 0.000000 47.188665 10.414955 0.342875 0 0 0
44 1 1 0.000000 31.036013 6.142603 37.488584 0 0 0
45 1 1 0.000000 2.081661 1.242010 46.451881 1 0 0
46 1 1 0.000000 29.302866 9.148637 24.043112 0 0 0
47 1 1 0.000000 32.233008 45.441782 14.922638 0 0 0
48 1 1 0.000000 11.284844 12.358424 46.264871 0 0 0
49 1 1 0.000000 46.809797 15.264461 17.375226 0 0 0
50 1 1 0.000000 31.194341 27.623736 26.345792 0 0 0
51 1 1 0.000000 31.383633 23.881067 40.742571 0 0 0
52 1 1 0.000000 24.638913 27.393070 43.963573 0 0 0
53 1 1 0.000000 36.635007 24.176619 0.081021 0 0 0
54 1 1 0.000000 6.940750 40.025027 11.862605 0 0 0
55 1 1 0.000000 18.271625 37.207391 33.757703 0 0 0
56 1 1 0.000000 25.713188 22.995897 0.469424 0 0 1
57 1 1 0.000000 4.876191 11.365727 19.599109 0 0 0
58 1 1 0.000000 7.249004 44.771105 44.601056 0 0 0
59 1 1 0.000000 9.143576 42.682484 5.234577 0 0 0
60 1 1 0.000000 10.533941 5.044160 37.110364 0 0 0
61 1 1 0.000000 6.570537 1.253735 8.029920 0 0 0
62 1 1 0.000000 18.725722 30.858632 41.934603 0 0 0
63 1 1 0.000000 49.676131 49.404168 11.233836 0 0 0
64 1 1 0.000000 27.517124 34.163144 47.381715 0 0 0
65 1 1 0.000000 3.727769 4.597490 16.253780 0 0 0
66 1 1 0.000000 7.396347 46.994567 22.240114 0 0 0
67 1 1 0.000000 30.405269 10.505901 1.583516 0 0 0
68 1 1 0.000000 21.819399 6.565660 20.278078 0 0 0
69 1 1 0.000000 34.243212 48.544607 39.545791 0 0 0
70 1 1 0.000000 19.691884 30.026199 35.099727 0 0 0
71 1 1 0.000000 30.848982 11.159486 9.733435 0 0 0
72 1 1 0.000000 13.576657 41.081336 42.500309 0 0 0
73 1 1 0.000000 12.446380 30.592145 29.057817 0 0 0
74 1 1 0.000000 40.339897 3.962698 10.674171 0 0 0
75 1 1 0.000000 2.711489 46.809528 35.324662 0 0 0
76 1 1 0.000000 0.781383 18.044687 45.360267 0 0 0
77 1 1 0.000000 45.070735 19.198323 32.759678 0 0 0
78 1 1 0.000000 37.096851 5.035514 41.245093 0 0 0
79 1 1 0.000000 31.177039 3.282751 45.307144 0 0 0
80 1 1 0.000000 9.702003 34.367778 41.047266 0 0 0
81 1 1 0.000000 46.671968 0.797027 35.490036 0 0 0
82 1 1 0.000000 40.174625 45.533016 36.086700 0 0 0
83 1 1 0.000000 15.050015 35.237699 46.816400 0 0 0
84 1 1 0.000000 19.542966 10.816163 34.885148 0 0 0
85 1 1 0.000000 39.345200 17.233561 44.546572 0 0 0
86 1 1 0.000000 4.423620 9.583562 44.526689 0 0 0
87 1 1 0.000000 7.809763 18.835550 4.199130 0 0 0
88 1 1 0.000000 7.018922 18.912107 40.238747 0 0 0
89 1 1 0.000000 8.192827 23.398736 25.097754 0 0 0
90 1 1 0.000000 36.105743 33.617621 17.272857 0 0 0
91 1 1 0.000000 25.553561 5.334267 5.545690 0 0 0
92 1 1 0.000000 37.402444 31.756251 34.466937 0 0 0
93 1 1 0.000000 42.249110 29.323608 49.548695 0 0 -1
94 1 1 0.000000 9.891866 15.880839 12.456939 0 0 0
95 1 1 0.000000 12.716006 28.370153 44.934043 0 0 0
96 1 1 0.000000 49.936362 24.589266 49.437627 0 0 0
97 1 1 0.000000 41.321338 15.740295 7.813752 0 0 0
98 1 1 0.000000 38.344206 2.146106 3.308628 0 0 0
99 1 1 0.000000 32.411221 14.996504 45.795640 0 0 0
100 1 1 0.000000 43.542735 14.292643 23.830218 0 0 0
101 1 1 0.000000 22.342808 8.610638 27.521548 0 0 0
102 1 1 0.000000 22.006932 37.241879 43.499081 0 0 0
103 1 1 0.000000 1.273740 49.333001 3.699821 0 0 0
104 1 1 0.000000 7.365101 23.103326 11.328197 0 0 0
105 1 1 0.000000 28.800998 29.757457 5.221089 0 0 0
106 1 1 0.000000 17.282592 11.442447 15.359379 0 0 0
107 1 1 0.000000 27.027460 49.885941 37.001242 0 0 0
108 1 1 0.000000 35.197772 18.565665 4.374165 0 0 0
109 1 1 0.000000 41.207071 22.064345 17.473488 0 0 0
110 1 1 0.000000 41.741472 12.731547 35.548357 0 0 0
111 1 1 0.000000 11.040937 5.551011 11.991215 0 0 0
112 1 1 0.000000 31.003486 27.898571 47.910337 0 0 0
113 1 1 0.000000 20.770087 33.655753 0.856714 0 0 0
114 1 1 0.000000 46.010236 40.193621 45.467227 0 0 0
115 1 1 0.000000 3.110672 7.905830 9.591775 0 1 1
116 1 1 0.000000 34.770685 9.419809 32.173114 0 0 0
117 1 1 0.000000 45.439163 21.011593 4.298955 0 0 0
118 1 1 0.000000 25.181977 44.102225 47.292440 0 0 0
119 1 1 0.000000 20.233914 22.303866 6.267291 0 0 0
120 1 1 0.000000 17.008834 26.440220 18.923874 0 0 0
121 1 1 0.000000 22.194859 3.250013 32.385366 0 0 0
122 1 1 0.000000 37.662370 37.351906 11.011348 0 0 0
123 1 1 0.000000 14.479338 3.841657 27.057732 0 0 0
124 1 1 0.000000 1.857896 31.066273 31.732754 0 0 0
125 1 1 0.000000 12.549297 21.153818 45.490651 0 0 0
126 1 1 0.000000 12.983435 9.299028 31.980946 0 0 0
127 1 1 0.000000 20.903656 14.086230 22.293130 0 0 0
128 1 1 0.000000 47.416474 36.345628 28.850140 0 0 0
129 1 1 0.000000 25.640012 19.866382 43.466908 0 0 0
130 1 1 0.000000 43.780473 36.985617 39.232789 0 0 0
131 1 1 0.000000 15.512578 9.210630 40.904228 0 0 0
132 1 1 0.000000 8.130295 7.158446 24.905959 0 0 0
133 1 1 0.000000 20.277278 25.052112 30.122603 0 0 0
134 1 1 0.000000 40.583334 44.679997 23.637826 0 0 0
135 1 1 0.000000 19.804390 26.697514 12.333694 0 0 0
136 1 1 0.000000 49.954571 19.564116 38.048697 0 0 0
137 1 1 0.000000 28.547068 22.922960 21.052538 0 0 0
138 1 1 0.000000 7.660498 28.878824 5.675269 0 0 0
139 1 1 0.000000 39.936428 9.289342 4.872627 0 0 0
140 1 1 0.000000 23.895271 6.661800 39.148979 0 0 0
141 1 1 0.000000 31.365095 43.668356 43.835096 0 0 0
142 1 1 0.000000 47.253818 30.319414 5.201013 0 0 0
143 1 1 0.000000 8.874444 40.188768 32.610240 0 0 0
144 1 1 0.000000 24.514374 37.256915 16.819733 0 0 0
145 1 1 0.000000 49.493550 12.155532 36.261763 0 0 0
146 1 1 0.000000 37.027894 39.705551 40.594254 0 0 0
147 1 1 0.000000 22.745785 45.359795 40.658414 0 0 0
148 1 1 0.000000 12.646383 47.780016 36.343792 0 0 0
149 1 1 0.000000 1.655827 4.097127 28.055716 0 0 0
150 1 1 0.000000 10.816287 2.672242 18.641645 0 0 0
151 1 1 0.000000 2.298103 3.912133 39.263028 0 0 0
152 1 1 0.000000 39.111250 15.924483 29.745600 0 0 0
153 1 1 0.000000 30.756368 40.278329 0.785198 0 0 1
154 1 1 0.000000 13.409317 46.401061 26.835404 0 0 0
155 1 1 0.000000 0.972402 22.130371 9.189619 0 0 0
156 1 1 0.000000 2.172441 35.946134 37.738809 0 0 0
157 1 1 0.000000 40.476205 45.758801 1.656077 0 0 0
158 1 1 0.000000 38.257349 7.143824 47.994175 0 0 0
159 1 1 0.000000 39.571171 29.397735 41.511365 0 0 0
160 1 1 0.000000 37.630779 23.579570 36.633889 0 0 0
161 1 1 0.000000 47.533752 41.637917 34.043695 0 0 0
162 1 1 0.000000 14.870813 39.129524 12.410676 0 0 0
163 1 1 0.000000 47.343470 8.465185 42.955660 0 0 0
164 1 1 0.000000 17.015471 26.957056 1.313224 0 0 0
165 1 1 0.000000 0.928675 24.872037 24.743396 0 0 0
166 1 1 0.000000 37.035457 41.807532 47.559761 0 0 0
167 1 1 0.000000 37.179426 36.116544 27.861956 0 0 0
168 1 1 0.000000 20.230128 18.044903 33.689496 0 0 0
169 1 1 0.000000 14.859070 17.002027 6.592527 0 0 0
170 1 1 0.000000 5.622699 34.947700 17.536140 0 0 0
171 1 1 0.000000 22.502041 25.740158 23.474606 0 0 0
172 1 1 0.000000 10.834699 45.344754 15.597367 0 0 0
173 1 1 0.000000 30.604222 22.408302 14.308240 0 0 0
174 1 1 0.000000 4.089663 25.530566 43.228539 0 0 0
175 1 1 0.000000 42.903633 6.211780 37.656282 0 0 0
176 1 1 0.000000 43.279847 22.881102 46.564622 0 0 0
177 1 1 0.000000 38.209340 34.957756 47.990035 0 0 0
178 1 1 0.000000 43.142026 36.668821 3.921534 0 0 0
179 1 1 0.000000 22.132666 17.820618 15.727738 0 0 0
180 1 1 0.000000 11.908519 4.201911 47.959493 0 0 0
181 1 1 0.000000 32.996857 45.108537 6.547560 0 0 0
182 1 1 0.000000 23.778581 39.850758 2.912121 0 0 1
183 1 1 0.000000 13.190336 13.399877 22.421128 0 0 0
184 1 1 0.000000 44.862915 31.197257 34.732538 0 0 0
185 1 1 0.000000 28.458918 19.830528 7.730950 0 0 0
186 1 1 0.000000 42.874875 10.364740 13.463467 0 0 0
187 1 1 0.000000 48.689865 11.986727 28.806680 0 0 0

Bonds

1 1 100 109
2 1 48 85
3 1 4 146
4 1 46 160
5 1 127 185
6 1 64 161
7 1 15 49
8 1 27 73
9 1 11 80
10 1 54 173
11 1 62 67
12 1 147 157
13 1 29 173
14 1 31 113
15 1 58 80
16 1 73 82
17 1 8 107
18 1 2 49
19 1 55 171
20 1 139 177
21 1 19 144
22 1 103 130
23 1 36 127
24 1 154 162
25 1 3 123
26 1 6 70
27 1 103 129
28 1 77 177
29 1 144 153
30 1 80 83
31 1 57 99
32 1 84 101
33 1 134 172
34 1 54 154
35 1 76 104
36 1 178 184
37 1 70 88
38 1 79 99
39 1 61 143
40 1 22 149
41 1 6 11
42 1 9 39
43 1 36 82
44 1 101 145
45 1 18 21
46 1 84 160
47 1 126 155
48 1 111 181
49 1 27 67
50 1 56 167
51 1 21 35
52 1 12 174
53 1 143 177
54 1 130 170
55 1 17 107
56 1 74 134
57 1 40 137
58 1 17 145
59 1 122 124
60 1 153 175
61 1 51 187
62 1 47 57
63 1 154 180
64 1 149 183
65 1 67 181
66 1 52 53
67 1 86 183
68 1 18 175
69 1 2 19
70 1 31 89
71 1 66 172
72 1 32 178
73 1 105 108
74 1 64 87
75 1 2 15
76 1 81 120
77 1 75 156
78 1 118 180
79 1 5 112
80 1 138 162
81 1 15 88
82 1 101 130
83 1 83 120
84 1 27 78
85 1 65 115
86 1 5 118
87 1 13 138
88 1 81 161
89 1 143 184
90 1 91 164
91 1 12 137
92 1 109 121
93 1 120 126
94 1 121 162
95 1 84 151
96 1 6 88
97 1 129 168
98 1 85 163
99 1 60 77
100 1 1 89
101 1 11 94
102 1 41 75
103 1 24 173
104 1 138 179
105 1 169 179
106 1 34 99
107 1 105 183
108 1 87 179
109 1 18 72
110 1 171 176
111 1 69 159
112 1 73 133
113 1 1 77
114 1 31 127
115 1 43 75
116 1 58 98
117 1 44 121
118 1 113 164
119 1 1 114
120 1 36 152
121 1 25 122
122 1 23 85
123 1 148 149
124 1 25 47
125 1 7 176
126 1 93 142
127 1 113 182
128 1 59 134
129 1 60 178
130 1 159 161
131 1 72 111
132 1 32 112
133 1 65 136
134 1 13 86
135 1 92 146
136 1 63 103
137 1 92 160
138 1 76 87
139 1 5 93
140 1 54 124
141 1 74 139
142 1 59 172
143 1 39 98
144 1 43 92
145 1 29 45
146 1 83 176
147 1 59 115
148 1 32 157
149 1 37 56
150 1 10 100
151 1 14 34
152 1 51 168
153 1 37 43
154 1 7 115
155 1 38 187
156 1 90 124
157 1 16 93
158 1 46 163
159 1 116 137
160 1 55 167
161 1 107 116
162 1 35 58
163 1 100 105
164 1 9 49
165 1 125 171
166 1 70 131
167 1 118 141
168 1 21 181
169 1 79 98
170 1 8 56
171 1 51 159
172 1 128 165
173 1 63 141
174 1 65 156
175 1 33 108
176 1 90 109
177 1 123 125
178 1 112 156
179 1 17 35
180 1 55 166
181 1 125 165
182 1 91 119
183 1 13 14
184 1 63 123
185 1 30 135
186 1 52 136
187 1 72 180
188 1 40 66
189 1 60 76
190 1 4 117
191 1 38 144
192 1 40 166
193 1 33 141
194 1 8 126
195 1 102 168
196 1 91 102
197 1 136 187
198 1 47 102
199 1 57 68
200 1 16 163
201 1 20 39
202 1 69 82
203 1 10 128
204 1 28 66
205 1 48 89
206 1 30 46
207 1 3 90
208 1 10 97
209 1 78 104
210 1 16 78
211 1 140 158
212 1 157 182
213 1 14 150
214 1 148 164
215 1 25 148
216 1 4 9
217 1 61 119
218 1 34 119
219 1 104 142
220 1 155 174
221 1 106 116
222 1 44 52
223 1 131 158
224 1 129 140
225 1 44 131
226 1 133 147
227 1 12 135
228 1 97 166
229 1 106 170
230 1 29 71
231 1 62 153
232 1 152 155
233 1 48 106
234 1 142 185
235 1 110 145
236 1 28 182
237 1 20 26
238 1 33 175
239 1 110 152
240 1 24 28
241 1 96 128
242 1 94 140
243 1 71 122
244 1 23 50
245 1 38 111
246 1 74 174
247 1 53 150
248 1 61 133
249 1 86 108
250 1 147 185
251 1 110 167
252 1 24 26
253 1 26 81
254 1 19 22
255 1 53 62
256 1 95 165
257 1 69 71
258 1 95 169
259 1 3 23
260 1 68 139
261 1 95 117
262 1 41 68
263 1 20 37
264 1 7 22
265 1 96 158
266 1 94 96

