Generated by ZY

187 atoms
1 atom types
266 bonds
1 bond types

0.0000000000000000 50.0000000000000000 xlo xhi
0.0000000000000000 50.0000000000000000 ylo yhi
0.0000000000000000 50.0000000000000000 zlo zhi

Masses

1 1.000

Atoms # full

1 1 1 0.000000 17.447017 18.447769 21.112245 0 0 0
2 1 1 0.000000 5.322895 8.349545 44.366514 0 0 0
3 1 1 0.000000 26.069359 48.632345 0.592089 0 0 1
4 1 1 0.000000 46.459303 9.686921 44.405434 0 0 0
5 1 1 0.000000 25.887308 4.389122 17.266928 0 0 0
6 1 1 0.000000 10.371376 16.943222 7.370730 0 0 0
7 1 1 0.000000 28.715700 6.637048 9.592961 0 0 0
8 1 1 0.000000 25.473797 22.005980 40.333977 0 0 0
9 1 1 0.000000 28.925987 6.317630 34.738430 0 0 0
10 1 1 0.000000 5.299575 48.623141 14.842472 0 0 0
11 1 1 0.000000 25.676678 32.272427 47.927349 0 0 0
12 1 1 0.000000 35.154741 12.750486 49.459638 0 0 -1
13 1 1 0.000000 16.977127 17.583157 10.573939 0 0 0
14 1 1 0.000000 27.846134 40.822588 36.814352 0 0 0
15 1 1 0.000000 6.557782 29.406746 30.660379 0 0 0
16 1 1 0.000000 17.986020 40.866499 9.440453 0 0 0
17 1 1 0.000000 9.635447 37.095977 9.065703 0 0 0
18 1 1 0.000000 46.483596 44.420259 32.176127 0 0 0
19 1 1 0.000000 48.386092 10.259269 31.194486 0 0 0
20 1 1 0.000000 14.352169 27.597903 44.745070 0 0 0
21 1 1 0.000000 24.329196 40.292536 24.937509 0 0 0
22 1 1 0.000000 34.553540 8.510506 29.687739 0 0 0
23 1 1 0.000000 29.593511 16.829602 24.581737 0 0 0
24 1 1 0.000000 9.911434 38.580058 43.954430 0 0 0
25 1 1 0.000000 17.940241 26.751082 1.474312 0 0 0
26 1 1 0.000000 1.736511 28.030322 48.420919 0 0 0
27 1 1 0.000000 29.485843 46.771074 16.534105 0 0 0
28 1 1 0.000000 21.121126 7.785893 31.475668 0 0 0
29 1 1 0.000000 3.624090 47.936160 45.747552 0 0 0
30 1 1 0.000000 14.874182 23.640920 25.468302 0 0 0
31 1 1 0.000000 22.186224 8.559350 6.618684 0 0 0
32 1 1 0.000000 46.911259 3.201196 25.575933 0 0 0
33 1 1 0.000000 27.376658 11.149064 29.004154 0 0 0
34 1 1 0.000000 35.947475 7.424959 43.018617 0 0 0
35 1 1 0.000000 48.887748 3.107352 32.981064 0 0 0
36 1 1 0.000000 35.798587 24.433594 27.220535 0 0 0
37 1 1 0.000000 6.701712 43.282074 6.126540 0 0 0
38 1 1 0.000000 6.551484 21.980413 49.376899 0 0 0
39 1 1 0.000000 38.060976 9.528441 14.128746 0 0 0
40 1 1 0.000000 14.255540 44.031319 19.147666 0 0 0
41 1 1 0.000000 2.590574 13.565287 36.193930 0 0 0
42 1 1 0.000000 42.388713 26.611374 44.625800 0 0 0
43 1 1 0.000000 41.281363 16.018851 22.011422 0 0 0
44 1 1 0.000000 4.811063 10.594639 13.539583 0 0 0
45 1 1 0.000000 44.603802 48.371434 3.857708 0 0 0
46 1 1 0.000000 15.158026 34.260322 45.758382 0 0 0
47 1 1 0.000000 19.245725 45.576894 24.676842 0 0 0
48 1 1 0.000000 48.047722 22.326343 21.761536 0 0 0
49 1 1 0.000000 10.258660 0.023510 48.218460 1 0 0
50 1 1 0.000000 35.985955 3.908361 36.342744 0 0 0
51 1 1 0.000000 43.289826 10.038281 25.911124 0 0 0
52 1 1 0.000000 7.182830 45.439202 21.435673 0 0 0
53 1 1 0.000000 8.229679 21.872357 28.634573 0 0 0
54 1 1 0.000000 13.049040 15.989835 27.296835 0 0 0
55 1 1 0.000000 44.265823 42.487729 39.478387 0 0 0
56 1 1 0.000000 17.082100 0.254848 39.175359 0 0 0
57 1 1 0.000000 1.215937 13.633124 48.199630 0 1 0
58 1 1 0.000000 33.830601 40.787046 31.949589 0 0 0
59 1 1 0.000000 38.890358 26.793692 8.733638 0 0 0
60 1 1 0.000000 34.575078 31.743596 25.321524 0 0 0
61 1 1 0.000000 24.981962 22.196196 33.478618 0 0 0
62 1 1 0.000000 1.681372 36.526072 47.251327 0 0 0
63 1 1 0.000000 44.847428 4.529758 14.699703 0 0 0
64 1 1 0.000000 20.962277 24.839068 28.593701 0 0 0
65 1 1 0.000000 32.328884 12.232242 7.018662 0 0 0
66 1 1 0.000000 20.941699 25.573851 44.163797 0 0 0
67 1 1 0.000000 0.776654 33.182687 3.706183 0 0 0
68 1 1 0.000000 21.102123 41.590091 2.256185 0 0 0
69 1 1 0.000000 9.022446 4.369590 5.459638 0 0 0
70 1 1 0.000000 0.737980 23.608566 37.502658 0 0 0
71 1 1 0.000000 22.918536 4.606125 41.747853 0 0 0
72 1 1 0.000000 3.393456 17.962624 16.525265 0 0 0
73 1 1 0.000000 15.868995 0.307484 13.605155 1 0 0
74 1 1 0.000000 46.378193 9.370378 2.740181 0 0 0
75 1 1 0.000000 6.281223 34.968820 24.452776 0 0 0
76 1 1 0.000000 42.054043 28.141692 35.090090 0 0 0
77 1 1 0.000000 8.733327 31.193370 4.317472 0 1 0
78 1 1 0.000000 30.775665 43.320804 3.498709 0 0 0
79 1 1 0.000000 49.225546 10.493624 21.123069 0 0 0
80 1 1 0.000000 31.999971 39.485708 15.935920 0 0 0
81 1 1 0.000000 18.924249 29.170914 8.623908 0 0 0
82 1 1 0.000000 32.293778 0.096379 22.252014 0 0 0
83 1 1 0.000000 31.060968 20.269138 30.634681 0 0 0
84 1 1 0.000000 11.439566 26.422783 38.396241 0 0 0
85 1 1 0.000000 39.250568 46.721429 31.115673 0 0 0
86 1 1 0.000000 47.306949 13.902816 14.761575 0 0 0
87 1 1 0.000000 28.936989 11.381945 18.625612 0 0 0
88 1 1 0.000000 28.557596 49.019046 41.759697 0 0 0
89 1 1 0.000000 38.105385 47.418044 40.491845 0 0 0
90 1 1 0.000000 32.755123 4.679599 2.974131 0 0 0
91 1 1 0.000000 16.715851 9.594636 25.342034 0 0 0
92 1 1 0.000000 28.448480 22.616249 8.463112 0 0 0
93 1 1 0.000000 21.759651 10.219511 15.065911 0 0 0
94 1 1 0.000000 14.265509 23.014598 32.800410 0 0 0
95 1 1 0.000000 40.768473 9.939513 33.291208 0 0 0
96 1 1 0.000000 24.111479 29.965349 14.423626 0 0 0
97 1 1 0.000000 18.401485 0.837421 30.221721 0 0 0
98 1 1 0.000000 12.039530 16.619751 0.183402 0 0 0
99 1 1 0.000000 4.613936 34.515981 40.477224 0 0 0
100 1 1 0.000000 9.994435 37.192871 17.723433 0 0 0
101 1 1 0.000000 10.326750 24.224896 20.026814 0 0 0
102 1 1 0.000000 41.696125 18.973280 15.239447 0 0 0
103 1 1 0.000000 42.244712 45.375828 10.269996 0 0 0
104 1 1 0.000000 12.647212 20.815339 44.213245 0 0 0
105 1 1 0.000000 42.680516 31.662734 12.853404 0 0 0
106 1 1 0.000000 39.428577 49.194966 24.015155 0 0 0
107 1 1 0.000000 31.811738 19.662133 37.874675 0 0 0
108 1 1 0.000000 18.199740 16.166442 43.156351 0 0 0
109 1 1 0.000000 27.056759 24.616154 47.681997 0 0 0
110 1 1 0.000000 47.466427 29.293342 29.095635 0 0 0
111 1 1 0.000000 40.689066 7.571613 48.521740 0 0 0
112 1 1 0.000000 7.055803 42.575121 49.060286 0 0 0
113 1 1 0.000000 11.554534 29.934975 15.328123 0 0 0
114 1 1 0.000000 13.528309 41.006645 2.506708 0 0 0
115 1 1 0.000000 10.467464 7.188623 21.325620 0 0 0
116 1 1 0.000000 15.241331 12.123841 18.005409 0 0 0
117 1 1 0.000000 18.897021 19.415714 36.713401 0 0 0
118 1 1 0.000000 48.603852 42.830743 45.374725 0 -1 0
119 1 1 0.000000 5.630099 6.107389 32.870125 0 0 0
120 1 1 0.000000 28.431256 46.315031 27.241777 0 0 0
121 1 1 0.000000 4.229174 30.940803 18.419939 0 0 0
122 1 1 0.000000 27.401936 42.284960 45.703040 0 0 0
123 1 1 0.000000 27.108362 30.177167 28.168207 0 0 0
124 1 1 0.000000 30.820016 18.999697 1.892282 0 0 0
125 1 1 0.000000 37.186179 33.752876 39.024544 0 0 0
126 1 1 0.000000 39.471036 47.363833 16.957119 0 0 0
127 1 1 0.000000 24.528445 14.780450 35.481810 0 0 0
128 1 1 0.000000 6.344135 1.355365 40.071737 0 0 0
129 1 1 0.000000 29.914361 6.556370 23.944504 0 0 0
130 1 1 0.000000 7.574592 20.349270 36.471423 0 0 0
131 1 1 0.000000 0.068807 43.194855 23.488054 0 0 0
132 1 1 0.000000 31.432275 27.112431 2.835608 0 0 0
133 1 1 0.000000 21.655240 46.830858 44.006867 0 0 0
134 1 1 0.000000 45.189985 38.510135 2.539516 0 0 0
135 1 1 0.000000 35.108107 30.076356 46.002077 0 0 0
136 1 1 0.000000 22.550747 39.095616 17.913575 0 0 0
137 1 1 0.000000 39.389542 36.475450 47.978225 0 0 0
138 1 1 0.000000 21.695791 32.836002 41.596551 0 0 0
139 1 1 0.000000 49.775831 30.534026 10.511393 0 0 0
140 1 1 0.000000 10.305203 48.424518 9.436779 0 0 0
141 1 1 0.000000 1.116754 25.139409 5.303058 0 0 0
142 1 1 0.000000 42.339194 6.346627 39.564663 0 0 0
143 1 1 0.000000 40.706210 14.478512 43.251807 0 0 0
144 1 1 0.000000 33.169578 4.297202 15.722035 0 0 0
145 1 1 0.000000 21.320785 46.912343 17.380788 0 0 0
146 1 1 0.000000 22.983944 13.949323 22.709332 0 0 0
147 1 1 0.000000 16.752123 0.934097 5.995249 0 0 0
148 1 1 0.000000 43.184667 0.206043 35.985832 0 0 0
149 1 1 0.000000 29.247630 49.547459 9.597694 -1 0 0
150 1 1 0.000000 10.586054 9.085195 0.039810 0 0 0
151 1 1 0.000000 35.917212 25.871856 39.582121 0 0 0
152 1 1 0.000000 3.034645 16.195550 7.207441 0 0 0
153 1 1 0.000000 7.369407 40.711089 29.140533 0 0 0
154 1 1 0.000000 28.810618 18.540119 17.176810 0 0 0
155 1 1 0.000000 23.767263 15.596838 4.018467 0 0 0
156 1 1 0.000000 38.507642 25.081639 1.428416 0 0 0
157 1 1 0.000000 32.701669 47.853386 34.016776 0 0 0
158 1 1 0.000000 34.854063 45.230900 11.243346 0 0 0
159 1 1 0.000000 27.415629 11.479169 49.053095 0 0 0
160 1 1 0.000000 29.509321 5.480919 45.589527 0 0 0
161 1 1 0.000000 10.674238 48.118061 30.894713 0 0 0
162 1 1 0.000000 0.384301 6.865872 39.044806 0 0 0
163 1 1 0.000000 38.558615 2.355566 10.780397 0 0 0
164 1 1 0.000000 11.222014 6.486599 39.103384 0 0 0
165 1 1 0.000000 27.583356 37.096458 30.436483 0 0 0
166 1 1 0.000000 39.488259 40.540425 27.093285 0 0 0
167 1 1 0.000000 43.819719 10.293200 9.477564 0 0 0
168 1 1 0.000000 0.305572 47.310100 38.702778 0 0 0
169 1 1 0.000000 15.533159 32.836194 37.453489 0 0 0
170 1 1 0.000000 27.201120 11.225225 41.214073 0 0 0
171 1 1 0.000000 9.392707 36.469339 35.046333 0 0 0
172 1 1 0.000000 41.465074 34.030362 30.148582 0 0 0
173 1 1 0.000000 47.380965 36.053461 16.895241 0 0 0
174 1 1 0.000000 47.497386 24.164485 14.289109 0 0 0
175 1 1 0.000000 5.344069 27.253627 42.264412 0 0 0
176 1 1 0.000000 37.475769 15.989810 10.297500 0 0 0
177 1 1 0.000000 18.925413 40.167928 45.061386 0 0 0
178 1 1 0.000000 9.940228 12.714624 35.379538 0 0 0
179 1 1 0.000000 23.179615 23.401156 18.182751 0 0 0
180 1 1 0.000000 25.067533 17.288621 45.562946 0 0 0
181 1 1 0.000000 22.220847 47.484737 9.843460 0 0 0
182 1 1 0.000000 25.439639 48.018282 34.762861 0 0 0
183 1 1 0.000000 19.297406 34.236973 1.855034 0 0 0
184 1 1 0.000000 45.357905 17.110023 32.653911 0 0 0
185 1 1 0.000000 27.077857 41.005733 9.765782 0 0 0
186 1 1 0.000000 17.691297 0.555363 48.798674 1 0 0
187 1 1 0.000000 40.929722 14.870683 3.811557 0 0 0

Bonds

1 1 17 37
2 1 159 185
3 1 33 81
4 1 24 38
5 1 80 92
6 1 11 180
7 1 22 72
8 1 35 104
9 1 16 179
10 1 4 29
11 1 82 139
12 1 31 167
13 1 49 73
14 1 90 133
15 1 48 141
16 1 31 150
17 1 22 110
18 1 83 145
19 1 77 171
20 1 79 92
21 1 127 151
22 1 31 138
23 1 29 140
24 1 117 186
25 1 102 162
26 1 84 99
27 1 27 174
28 1 151 175
29 1 3 90
30 1 91 93
31 1 77 165
32 1 3 96
33 1 92 94
34 1 104 152
35 1 21 131
36 1 84 153
37 1 81 124
38 1 12 60
39 1 5 182
40 1 85 127
41 1 105 156
42 1 130 171
43 1 16 65
44 1 6 142
45 1 64 175
46 1 121 126
47 1 8 84
48 1 53 91
49 1 30 81
50 1 24 58
51 1 17 109
52 1 113 135
53 1 25 78
54 1 5 30
55 1 121 137
56 1 57 178
57 1 86 97
58 1 85 122
59 1 24 123
60 1 28 83
61 1 42 65
62 1 63 159
63 1 116 179
64 1 23 94
65 1 155 186
66 1 7 90
67 1 64 128
68 1 97 133
69 1 113 137
70 1 4 156
71 1 66 143
72 1 69 145
73 1 15 117
74 1 158 163
75 1 114 140
76 1 82 183
77 1 54 56
78 1 23 134
79 1 46 174
80 1 18 175
81 1 18 158
82 1 75 142
83 1 63 131
84 1 56 111
85 1 101 179
86 1 34 151
87 1 12 155
88 1 59 96
89 1 26 49
90 1 17 123
91 1 73 112
92 1 13 15
93 1 20 66
94 1 73 186
95 1 7 176
96 1 86 100
97 1 26 168
98 1 85 156
99 1 45 146
100 1 42 54
101 1 4 154
102 1 57 114
103 1 7 116
104 1 159 176
105 1 114 136
106 1 82 86
107 1 83 125
108 1 47 101
109 1 76 181
110 1 54 129
111 1 142 168
112 1 38 80
113 1 72 99
114 1 122 172
115 1 91 170
116 1 76 172
117 1 29 141
118 1 40 147
119 1 69 128
120 1 102 119
121 1 100 165
122 1 120 136
123 1 59 60
124 1 96 97
125 1 105 154
126 1 69 130
127 1 98 104
128 1 108 122
129 1 49 149
130 1 16 177
131 1 139 187
132 1 124 170
133 1 53 64
134 1 2 180
135 1 89 111
136 1 139 164
137 1 136 169
138 1 25 177
139 1 95 157
140 1 129 130
141 1 18 121
142 1 10 134
143 1 20 146
144 1 33 102
145 1 22 108
146 1 26 108
147 1 78 149
148 1 58 99
149 1 2 27
150 1 27 66
151 1 117 168
152 1 42 78
153 1 148 163
154 1 147 153
155 1 40 75
156 1 37 115
157 1 53 75
158 1 35 63
159 1 74 176
160 1 164 187
161 1 21 51
162 1 126 131
163 1 89 95
164 1 55 95
165 1 33 178
166 1 52 119
167 1 113 178
168 1 116 167
169 1 6 152
170 1 30 36
171 1 141 153
172 1 28 41
173 1 45 111
174 1 14 46
175 1 40 124
176 1 79 80
177 1 6 101
178 1 68 77
179 1 44 58
180 1 107 163
181 1 71 180
182 1 9 177
183 1 12 34
184 1 133 160
185 1 9 20
186 1 127 184
187 1 46 48
188 1 45 65
189 1 34 160
190 1 74 128
191 1 38 162
192 1 5 154
193 1 36 166
194 1 1 23
195 1 143 147
196 1 3 44
197 1 134 187
198 1 98 160
199 1 137 174
200 1 60 72
201 1 94 138
202 1 105 132
203 1 13 93
204 1 1 146
205 1 32 140
206 1 112 145
207 1 28 129
208 1 13 44
209 1 71 93
210 1 39 184
211 1 11 135
212 1 57 171
213 1 1 25
214 1 14 149
215 1 9 172
216 1 8 61
217 1 74 107
218 1 47 182
219 1 32 166
220 1 76 107
221 1 125 132
222 1 110 143
223 1 138 169
224 1 50 132
225 1 52 169
226 1 55 59
227 1 68 135
228 1 41 118
229 1 8 181
230 1 71 182
231 1 68 118
232 1 19 166
233 1 41 173
234 1 88 161
235 1 32 39
236 1 50 173
237 1 115 148
238 1 144 185
239 1 106 126
240 1 164 185
241 1 100 118
242 1 150 170
243 1 48 144
244 1 39 155
245 1 98 167
246 1 61 110
247 1 61 165
248 1 103 162
249 1 14 144
250 1 36 157
251 1 37 183
252 1 150 181
253 1 79 161
254 1 109 125
255 1 35 55
256 1 56 157
257 1 10 19
258 1 106 148
259 1 2 119
260 1 15 123
261 1 21 47
262 1 10 67
263 1 50 120
264 1 19 109
265 1 43 51
266 1 88 158

