Generated by ZY

187 atoms
1 atom types
266 bonds
1 bond types

0.0000000000000000 50.0000000000000000 xlo xhi
0.0000000000000000 50.0000000000000000 ylo yhi
0.0000000000000000 50.0000000000000000 zlo zhi

Masses

1 1.000

Atoms # full

1 1 1 0.000000 35.022925 40.223192 16.215652 0 0 0
2 1 1 0.000000 36.906549 2.344692 10.389071 0 0 0
3 1 1 0.000000 36.272803 14.683114 48.982460 0 0 0
4 1 1 0.000000 18.727596 26.279230 11.784514 0 0 0
5 1 1 0.000000 17.873545 37.423424 3.957129 0 0 0
6 1 1 0.000000 16.528741 27.455639 25.612247 0 0 0
7 1 1 0.000000 42.344784 17.036324 7.862986 0 0 0
8 1 1 0.000000 23.611545 9.365466 41.536435 0 0 0
9 1 1 0.000000 20.269542 28.026987 44.231741 0 0 0
10 1 1 0.000000 48.173646 9.826097 46.184652 0 0 0
11 1 1 0.000000 19.265530 9.524699 35.198824 0 0 0
12 1 1 0.000000 2.706889 42.736889 0.704094 0 0 0
13 1 1 0.000000 39.272310 25.001695 33.223006 0 0 0
14 1 1 0.000000 33.305987 34.579772 25.399769 0 0 0
15 1 1 0.000000 21.115001 44.007544 45.454047 0 0 0
16 1 1 0.000000 22.223906 12.343882 8.830302 0 0 0
17 1 1 0.000000 12.764779 33.730496 29.781975 0 0 0
18 1 1 0.000000 3.555981 4.465103 28.570253 0 0 0
19 1 1 0.000000 35.790231 20.162990 28.306056 0 0 0
20 1 1 0.000000 45.748576 38.422159 41.106934 0 0 0
21 1 1 0.000000 43.513140 29.912144 39.590399 0 0 0
22 1 1 0.000000 6.790568 35.366128 16.403751 0 0 0
23 1 1 0.000000 15.529070 23.895072 5.456646 0 0 0
24 1 1 0.000000 1.312470 22.338897 49.305599 0 0 0
25 1 1 0.000000 17.846172 29.480501 32.768225 0 0 0
26 1 1 0.000000 19.554579 31.677719 19.125974 0 0 0
27 1 1 0.000000 17.342888 46.768943 33.913549 0 0 0
28 1 1 0.000000 25.957740 30.649665 22.714845 0 0 0
29 1 1 0.000000 8.195838 24.269047 5.003363 0 0 0
30 1 1 0.000000 16.553535 11.952227 27.838473 0 0 0
31 1 1 0.000000 41.874543 39.539421 0.612009 0 0 0
32 1 1 0.000000 23.202353 20.449852 23.529217 0 0 0
33 1 1 0.000000 7.659564 42.526697 14.880622 0 0 0
34 1 1 0.000000 44.305323 14.087096 14.571216 0 0 0
35 1 1 0.000000 8.838440 24.749568 12.831762 0 0 0
36 1 1 0.000000 20.168503 8.674046 1.836824 0 0 0
37 1 1 0.000000 25.456833 33.805078 48.088283 0 0 0
38 1 1 0.000000 1.528887 2.139239 43.394998 0 1 0
39 1 1 0.000000 28.953899 33.877631 33.975391 0 0 0
40 1 1 0.000000 37.807270 33.296633 0.072267 0 0 0
41 1 1 0.000000 21.247364 34.240617 11.179994 0 0 0
42 1 1 0.000000 26.865956 7.842224 49.481971 0 0 0
43 1 1 0.000000 5.141501 19.487670 35.728141 0 0 0
44 1 1 0.000000 21.913905 49.324032 28.898169 -1 0 0
45 1 1 0.000000 0.034336 33.559560 11.122365 0 1 0
46 1 1 0.000000 19.233367 18.935332 9.329664 0 0 0
47 1 1 0.000000 37.553800 18.721721 38.080621 0 0 0
48 1 1 0.000000 6.444445 34.115302 23.928857 0 0 0
49 1 1 0.000000 31.410782 25.778161 35.011539 0 0 0
50 1 1 0.000000 25.979917 1.630797 4.419749 0 0 0
51 1 1 0.000000 49.616414 37.970126 34.646210 0 -1 0
52 1 1 0.000000 38.006465 2.870393 25.715489 0 0 0
53 1 1 0.000000 11.590840 48.153611 29.701350 0 0 0
54 1 1 0.000000 25.772571 28.101684 39.520638 0 0 0
55 1 1 0.000000 27.994169 23.958349 44.892394 0 0 0
56 1 1 0.000000 19.469715 4.079320 15.443022 0 0 0
57 1 1 0.000000 0.452076 30.005757 35.824769 0 0 0
58 1 1 0.000000 49.279688 34.122150 1.739906 0 0 0
59 1 1 0.000000 37.243140 13.675747 16.603477 0 0 0
60 1 1 0.000000 10.715002 7.670365 2.845685 0 0 1
61 1 1 0.000000 20.685238 17.419139 30.390411 0 0 0
62 1 1 0.000000 35.870979 31.397981 18.625090 0 0 0
63 1 1 0.000000 16.796844 41.654218 9.837440 0 0 0
64 1 1 0.000000 26.051361 11.764164 33.644486 0 0 0
65 1 1 0.000000 14.871317 25.268805 48.426932 0 0 0
66 1 1 0.000000 48.644434 38.999388 17.118603 0 0 0
67 1 1 0.000000 4.257225 24.711760 30.568338 0 0 0
68 1 1 0.000000 35.844787 24.570551 43.252028 0 0 0
69 1 1 0.000000 9.900287 27.989081 32.937744 0 0 0
70 1 1 0.000000 33.432276 18.066550 4.712079 0 0 0
71 1 1 0.000000 45.659032 31.401374 19.126063 0 0 0
72 1 1 0.000000 42.050836 35.498131 35.499473 0 0 0
73 1 1 0.000000 49.507893 35.510584 23.739499 0 -1 0
74 1 1 0.000000 3.407828 15.916936 43.589826 0 0 0
75 1 1 0.000000 48.340197 27.363464 28.175719 0 0 0
76 1 1 0.000000 7.522692 26.599279 47.980385 0 0 -1
77 1 1 0.000000 14.050185 32.319721 13.122698 0 0 0
78 1 1 0.000000 29.697528 30.133710 10.545807 0 0 0
79 1 1 0.000000 24.330317 3.781255 36.096458 0 0 0
80 1 1 0.000000 33.892151 7.801798 1.651861 0 0 0
81 1 1 0.000000 29.471424 21.107004 11.574659 0 0 0
82 1 1 0.000000 11.826710 1.272651 36.336734 0 0 0
83 1 1 0.000000 39.086963 45.322666 21.743593 0 0 0
84 1 1 0.000000 43.515222 23.016344 41.851415 0 0 0
85 1 1 0.000000 17.180453 49.729855 23.433024 -1 0 0
86 1 1 0.000000 30.348175 47.672725 38.510822 0 0 0
87 1 1 0.000000 26.694015 35.439590 5.869052 0 0 0
88 1 1 0.000000 2.493167 7.805714 5.812862 0 0 0
89 1 1 0.000000 14.061938 16.338587 34.828104 0 0 0
90 1 1 0.000000 14.187213 21.521561 29.615476 0 0 0
91 1 1 0.000000 31.757343 29.921973 47.710816 0 0 0
92 1 1 0.000000 5.262444 45.692592 7.822961 0 0 0
93 1 1 0.000000 8.192563 0.730158 12.370655 0 0 0
94 1 1 0.000000 14.021175 49.346040 5.349600 0 0 0
95 1 1 0.000000 25.929435 26.267417 16.575778 0 0 0
96 1 1 0.000000 41.613012 1.983641 18.974826 0 0 0
97 1 1 0.000000 1.470714 14.587786 14.122651 0 1 0
98 1 1 0.000000 4.644746 5.734055 36.171093 0 0 0
99 1 1 0.000000 37.109987 27.044588 6.011973 0 0 0
100 1 1 0.000000 40.990846 1.495850 35.039604 0 0 0
101 1 1 0.000000 15.427359 6.156166 40.440348 0 0 0
102 1 1 0.000000 19.578877 34.370129 26.696524 0 0 0
103 1 1 0.000000 46.041637 41.415108 27.279979 0 0 0
104 1 1 0.000000 17.175882 35.634332 36.912732 0 0 0
105 1 1 0.000000 1.929219 6.261749 19.294536 0 0 0
106 1 1 0.000000 34.601282 3.917454 37.672691 1 0 0
107 1 1 0.000000 46.520824 4.490470 30.021782 0 0 0
108 1 1 0.000000 1.343241 44.425648 43.194819 0 0 0
109 1 1 0.000000 48.592912 47.272896 31.386712 0 0 0
110 1 1 0.000000 36.031484 31.473631 34.714235 0 0 0
111 1 1 0.000000 38.074564 28.550083 25.803368 0 0 0
112 1 1 0.000000 4.249877 28.437405 17.295478 0 0 0
113 1 1 0.000000 41.366397 37.678600 19.153125 0 0 0
114 1 1 0.000000 30.654274 12.087401 44.611319 0 0 0
115 1 1 0.000000 28.104904 21.745057 1.609360 0 0 0
116 1 1 0.000000 13.536459 44.965703 19.043079 0 0 0
117 1 1 0.000000 13.361168 33.936632 22.304805 0 0 0
118 1 1 0.000000 45.256421 9.095609 20.563378 0 0 0
119 1 1 0.000000 0.992433 49.912145 14.668611 -1 0 0
120 1 1 0.000000 12.317353 30.508345 39.115681 0 0 0
121 1 1 0.000000 24.532766 27.579106 32.499639 0 0 0
122 1 1 0.000000 10.433413 40.045822 26.657752 0 0 0
123 1 1 0.000000 4.931926 7.752768 12.824479 0 0 0
124 1 1 0.000000 16.212684 40.182817 31.254664 0 0 0
125 1 1 0.000000 5.189420 16.377561 8.093720 0 0 0
126 1 1 0.000000 15.808332 3.378030 49.001646 0 0 -1
127 1 1 0.000000 44.417926 1.281165 11.363257 0 0 0
128 1 1 0.000000 11.992539 9.096286 33.658505 0 0 0
129 1 1 0.000000 38.531697 48.576222 42.211136 0 0 0
130 1 1 0.000000 6.641871 30.707901 8.677266 0 0 0
131 1 1 0.000000 9.229220 25.920771 24.701647 0 0 0
132 1 1 0.000000 9.649954 3.691706 25.196101 0 0 0
133 1 1 0.000000 22.464321 17.608694 37.782665 0 0 0
134 1 1 0.000000 40.977713 11.727275 44.105113 0 0 0
135 1 1 0.000000 7.274427 18.578066 28.644810 0 0 0
136 1 1 0.000000 8.323786 49.542240 42.985023 -1 0 0
137 1 1 0.000000 11.819285 21.751149 18.935289 0 0 0
138 1 1 0.000000 22.662098 7.066976 28.566209 0 0 0
139 1 1 0.000000 3.097923 39.869023 28.159468 0 0 0
140 1 1 0.000000 28.491067 24.124264 27.870078 0 0 0
141 1 1 0.000000 45.431663 26.612907 13.167016 0 0 0
142 1 1 0.000000 3.627529 49.630784 22.013506 -1 0 0
143 1 1 0.000000 15.065948 13.592108 49.704929 0 0 -1
144 1 1 0.000000 9.000438 40.325408 36.405619 0 0 0
145 1 1 0.000000 3.149325 13.418204 1.008134 0 0 0
146 1 1 0.000000 9.313323 12.090286 26.532316 0 0 0
147 1 1 0.000000 12.107601 7.192451 12.765335 0 0 0
148 1 1 0.000000 28.695414 1.694294 30.147938 0 0 0
149 1 1 0.000000 33.843919 41.944746 2.273399 0 0 0
150 1 1 0.000000 40.677903 7.537550 14.164669 0 0 0
151 1 1 0.000000 42.150686 43.961266 35.614469 0 0 0
152 1 1 0.000000 8.319467 7.310020 42.709499 0 0 0
153 1 1 0.000000 16.219707 48.978497 42.636036 0 0 0
154 1 1 0.000000 39.737229 38.935372 29.859738 0 0 0
155 1 1 0.000000 47.722882 7.946026 11.648037 0 0 0
156 1 1 0.000000 5.890735 34.524085 32.486321 0 0 0
157 1 1 0.000000 7.953140 13.341379 38.283957 0 0 0
158 1 1 0.000000 44.243706 2.829191 44.303958 0 0 0
159 1 1 0.000000 37.189840 13.257536 25.349725 0 0 0
160 1 1 0.000000 14.719671 13.432193 41.931948 0 0 0
161 1 1 0.000000 28.068270 38.459085 41.801494 0 0 0
162 1 1 0.000000 5.242160 33.351526 40.583719 0 0 0
163 1 1 0.000000 47.652762 3.239294 37.303343 0 -1 0
164 1 1 0.000000 13.453305 4.843105 19.486133 0 0 0
165 1 1 0.000000 34.652256 43.542902 27.800835 0 0 0
166 1 1 0.000000 5.000284 46.598122 28.463128 0 0 0
167 1 1 0.000000 23.911704 42.243020 12.605225 0 0 0
168 1 1 0.000000 26.299622 37.096564 26.508993 0 0 0
169 1 1 0.000000 48.066438 43.445869 6.897501 0 0 0
170 1 1 0.000000 15.815717 4.227096 29.640077 0 0 0
171 1 1 0.000000 31.840881 25.943446 21.783855 0 0 0
172 1 1 0.000000 46.722818 14.622224 39.924278 0 0 0
173 1 1 0.000000 42.429184 33.585893 12.239220 0 0 0
174 1 1 0.000000 41.712770 47.296681 28.681789 0 0 0
175 1 1 0.000000 38.636408 24.005567 14.095457 0 0 0
176 1 1 0.000000 14.658011 12.076217 7.577621 0 0 0
177 1 1 0.000000 43.834198 32.852950 27.272288 0 0 0
178 1 1 0.000000 11.849867 18.755936 9.999598 0 0 0
179 1 1 0.000000 28.071307 16.901235 28.855297 0 0 0
180 1 1 0.000000 1.553565 25.050451 9.680178 0 0 0
181 1 1 0.000000 24.276081 24.270572 7.161628 0 0 0
182 1 1 0.000000 0.993945 22.849799 40.706589 0 0 0
183 1 1 0.000000 32.654828 14.298415 10.874752 0 0 0
184 1 1 0.000000 16.795867 38.519405 17.162637 0 0 0
185 1 1 0.000000 19.214202 30.925661 1.092792 0 0 0
186 1 1 0.000000 10.835907 33.039286 45.872672 0 0 0
187 1 1 0.000000 35.002260 38.283386 37.758748 0 0 0

Bonds

1 1 102 142
2 1 98 136
3 1 73 170
4 1 93 186
5 1 130 149
6 1 27 100
7 1 9 133
8 1 45 50
9 1 20 69
10 1 105 146
11 1 75 145
12 1 71 154
13 1 84 176
14 1 170 174
15 1 11 135
16 1 2 146
17 1 115 160
18 1 40 134
19 1 8 124
20 1 153 170
21 1 24 147
22 1 123 132
23 1 28 132
24 1 107 160
25 1 100 151
26 1 25 54
27 1 44 152
28 1 5 126
29 1 98 145
30 1 58 89
31 1 97 155
32 1 9 165
33 1 126 149
34 1 25 182
35 1 102 153
36 1 25 149
37 1 9 148
38 1 113 139
39 1 65 92
40 1 26 67
41 1 10 12
42 1 38 166
43 1 48 160
44 1 89 157
45 1 36 185
46 1 35 158
47 1 40 162
48 1 64 178
49 1 28 49
50 1 58 182
51 1 7 112
52 1 13 20
53 1 46 130
54 1 60 165
55 1 4 115
56 1 87 128
57 1 24 60
58 1 34 78
59 1 10 128
60 1 82 174
61 1 42 52
62 1 96 158
63 1 120 181
64 1 107 109
65 1 26 134
66 1 69 156
67 1 83 104
68 1 29 74
69 1 48 83
70 1 37 78
71 1 100 163
72 1 12 132
73 1 49 54
74 1 5 175
75 1 101 126
76 1 7 141
77 1 54 124
78 1 146 147
79 1 130 147
80 1 78 92
81 1 98 163
82 1 71 141
83 1 115 176
84 1 96 165
85 1 29 92
86 1 76 101
87 1 32 171
88 1 148 174
89 1 74 162
90 1 95 176
91 1 156 182
92 1 35 41
93 1 88 105
94 1 55 127
95 1 82 106
96 1 138 187
97 1 36 74
98 1 11 186
99 1 41 184
100 1 4 77
101 1 96 113
102 1 12 103
103 1 85 103
104 1 43 145
105 1 61 154
106 1 7 183
107 1 22 109
108 1 44 64
109 1 71 156
110 1 5 8
111 1 15 80
112 1 63 97
113 1 22 87
114 1 20 129
115 1 45 63
116 1 61 70
117 1 58 87
118 1 90 123
119 1 109 169
120 1 29 84
121 1 63 104
122 1 89 177
123 1 59 150
124 1 113 117
125 1 64 76
126 1 22 38
127 1 41 99
128 1 2 85
129 1 49 161
130 1 72 140
131 1 46 119
132 1 110 139
133 1 31 157
134 1 83 187
135 1 8 55
136 1 24 27
137 1 10 169
138 1 85 118
139 1 61 65
140 1 6 44
141 1 46 56
142 1 76 119
143 1 127 150
144 1 168 178
145 1 56 117
146 1 28 32
147 1 2 80
148 1 97 119
149 1 105 139
150 1 134 163
151 1 35 136
152 1 82 88
153 1 122 142
154 1 23 62
155 1 32 62
156 1 69 91
157 1 18 88
158 1 135 150
159 1 67 162
160 1 102 121
161 1 19 135
162 1 112 118
163 1 72 128
164 1 117 157
165 1 95 141
166 1 19 39
167 1 52 140
168 1 103 138
169 1 72 167
170 1 123 125
171 1 52 107
172 1 73 122
173 1 59 118
174 1 39 91
175 1 48 125
176 1 86 158
177 1 26 169
178 1 136 172
179 1 121 171
180 1 50 53
181 1 121 131
182 1 168 172
183 1 21 187
184 1 90 104
185 1 38 108
186 1 42 101
187 1 122 140
188 1 17 112
189 1 125 175
190 1 21 80
191 1 14 19
192 1 39 120
193 1 47 84
194 1 129 185
195 1 47 114
196 1 60 81
197 1 111 177
198 1 62 111
199 1 111 172
200 1 81 153
201 1 151 166
202 1 13 177
203 1 21 155
204 1 77 173
205 1 1 99
206 1 114 161
207 1 73 180
208 1 14 40
209 1 43 186
210 1 17 178
211 1 86 173
212 1 154 166
213 1 127 155
214 1 14 171
215 1 18 34
216 1 37 68
217 1 36 94
218 1 11 79
219 1 110 148
220 1 23 167
221 1 86 106
222 1 129 180
223 1 47 152
224 1 59 114
225 1 15 65
226 1 75 138
227 1 42 164
228 1 152 175
229 1 43 124
230 1 79 142
231 1 16 34
232 1 18 159
233 1 17 173
234 1 45 133
235 1 15 51
236 1 120 185
237 1 116 168
238 1 66 67
239 1 131 137
240 1 37 70
241 1 68 106
242 1 16 56
243 1 4 180
244 1 6 66
245 1 33 53
246 1 16 137
247 1 95 181
248 1 27 53
249 1 23 143
250 1 167 179
251 1 90 161
252 1 159 179
253 1 57 110
254 1 1 133
255 1 91 94
256 1 1 137
257 1 31 68
258 1 6 144
259 1 144 184
260 1 75 183
261 1 30 57
262 1 3 181
263 1 70 183
264 1 31 77
265 1 30 116
266 1 57 159

