Generated by ZY code

187 atoms
1 atom types
266 bonds
1 bond types
0 angles
0 angle types
0 dihedrals
0 dihedral types
0 impropers
0 improper types

0.0000000000000000 50.0000000000000000 xlo xhi
0.0000000000000000 50.0000000000000000 ylo yhi
0.0000000000000000 50.0000000000000000 zlo zhi

Masses

1 1.000

Atoms # full

1 1 1 0.000000 16.927385 28.559576 41.095013 0 0 0
2 1 1 0.000000 10.861756 41.906656 48.463097 0 0 -1
3 1 1 0.000000 45.955904 39.947073 49.493358 0 0 -1
4 1 1 0.000000 42.982840 46.934401 4.332884 0 0 0
5 1 1 0.000000 17.405246 8.821358 3.978897 0 0 0
6 1 1 0.000000 37.029424 43.725391 31.859481 0 0 0
7 1 1 0.000000 25.145346 3.137169 35.146854 0 0 0
8 1 1 0.000000 5.754785 8.331264 8.262670 0 0 0
9 1 1 0.000000 28.516350 14.154884 44.913330 0 0 0
10 1 1 0.000000 23.318485 47.242521 13.474659 0 0 0
11 1 1 0.000000 32.488880 36.488091 32.103908 0 0 0
12 1 1 0.000000 19.557668 17.898865 42.524379 0 0 0
13 1 1 0.000000 18.858699 31.399622 13.271934 0 0 0
14 1 1 0.000000 23.913393 2.959814 2.959026 0 0 0
15 1 1 0.000000 34.820006 17.503552 48.348372 0 0 -1
16 1 1 0.000000 36.590116 31.423956 21.368620 0 0 0
17 1 1 0.000000 5.412639 28.150229 29.363442 0 0 0
18 1 1 0.000000 11.929545 27.576003 18.111738 0 0 0
19 1 1 0.000000 0.352054 45.848538 22.256549 0 1 0
20 1 1 0.000000 49.531138 4.098481 5.674257 0 -1 0
21 1 1 0.000000 2.715020 3.707119 38.466229 0 0 0
22 1 1 0.000000 36.070752 38.973132 17.635736 0 0 0
23 1 1 0.000000 26.409275 34.951180 5.411095 0 0 0
24 1 1 0.000000 32.888001 24.783907 2.183242 0 0 0
25 1 1 0.000000 32.527673 27.927890 37.586139 0 0 0
26 1 1 0.000000 44.383664 30.748920 26.080922 0 0 0
27 1 1 0.000000 17.703146 16.685077 6.664307 0 0 0
28 1 1 0.000000 32.350945 30.349284 7.862648 0 0 0
29 1 1 0.000000 7.008785 0.176136 3.117608 0 0 0
30 1 1 0.000000 47.192739 37.751063 21.384916 0 0 0
31 1 1 0.000000 12.382863 19.778116 16.255932 0 0 0
32 1 1 0.000000 27.251787 41.776361 1.317534 0 0 0
33 1 1 0.000000 35.270395 8.613146 6.694322 0 0 0
34 1 1 0.000000 5.960281 35.760517 15.383180 0 0 0
35 1 1 0.000000 2.284953 49.926892 13.081914 0 0 0
36 1 1 0.000000 12.892085 13.626998 41.383178 0 0 0
37 1 1 0.000000 15.743205 23.349152 46.827591 0 0 0
38 1 1 0.000000 13.027664 4.726186 27.796236 0 0 0
39 1 1 0.000000 21.601468 34.035088 35.246819 0 0 0
40 1 1 0.000000 16.688464 29.892064 0.658514 0 0 0
41 1 1 0.000000 17.725405 36.810319 41.846582 0 0 0
42 1 1 0.000000 25.511653 30.883328 18.956835 0 0 0
43 1 1 0.000000 22.002876 41.885306 7.423860 0 0 0
44 1 1 0.000000 18.172721 33.662539 21.739290 0 0 0
45 1 1 0.000000 44.074744 21.685487 43.477464 0 0 0
46 1 1 0.000000 27.803970 10.050103 4.470665 0 0 0
47 1 1 0.000000 31.289595 35.260316 48.115894 0 0 0
48 1 1 0.000000 35.175153 7.976352 15.003526 0 0 0
49 1 1 0.000000 20.221320 6.386944 42.940951 0 0 0
50 1 1 0.000000 47.566755 17.897881 49.435349 0 0 0
51 1 1 0.000000 44.798776 27.511971 38.014369 0 0 0
52 1 1 0.000000 6.868596 39.642718 5.427728 0 0 0
53 1 1 0.000000 48.187917 49.470281 48.577950 -1 0 0
54 1 1 0.000000 42.912846 17.069973 22.966922 0 0 0
55 1 1 0.000000 40.690889 42.061564 42.842498 0 0 0
56 1 1 0.000000 16.157139 19.355046 35.378790 0 0 0
57 1 1 0.000000 9.009521 13.850523 33.864173 0 0 0
58 1 1 0.000000 47.714651 23.812613 29.935388 0 0 0
59 1 1 0.000000 15.039665 1.840856 48.626644 0 0 0
60 1 1 0.000000 4.758385 37.383641 46.118796 0 0 0
61 1 1 0.000000 24.348857 19.074912 10.130310 0 0 0
62 1 1 0.000000 5.291061 28.394385 9.195654 0 0 0
63 1 1 0.000000 40.923971 34.103092 4.711382 0 0 0
64 1 1 0.000000 28.426803 35.678956 24.814685 0 0 0
65 1 1 0.000000 11.656590 5.803091 35.765208 0 0 0
66 1 1 0.000000 19.258647 48.333413 30.733254 0 0 0
67 1 1 0.000000 36.031509 49.072105 7.539463 0 0 0
68 1 1 0.000000 19.530476 17.612030 19.132616 0 0 0
69 1 1 0.000000 21.973592 43.383582 38.937397 0 0 0
70 1 1 0.000000 14.322572 16.366981 49.553644 0 0 0
71 1 1 0.000000 46.920322 14.003641 41.209498 0 0 0
72 1 1 0.000000 24.921532 28.259318 27.280503 0 0 0
73 1 1 0.000000 45.956143 4.074531 15.785783 0 0 0
74 1 1 0.000000 25.896413 17.147136 37.379529 0 0 0
75 1 1 0.000000 9.692529 3.887828 43.026637 0 0 0
76 1 1 0.000000 18.707821 25.175950 22.736992 0 0 0
77 1 1 0.000000 41.399671 1.963588 35.020478 0 0 0
78 1 1 0.000000 25.516160 46.664508 25.670836 0 0 0
79 1 1 0.000000 33.378283 19.188474 40.232021 0 0 0
80 1 1 0.000000 9.374405 26.592583 43.651903 0 0 0
81 1 1 0.000000 47.813247 27.221493 14.460690 0 0 0
82 1 1 0.000000 4.424908 7.167487 16.372930 0 0 0
83 1 1 0.000000 48.501186 41.539000 29.411686 0 0 0
84 1 1 0.000000 25.134820 40.432228 30.987097 0 0 0
85 1 1 0.000000 26.288139 37.438895 42.040488 0 0 0
86 1 1 0.000000 45.505375 24.475804 21.206510 0 0 0
87 1 1 0.000000 11.316416 21.755416 24.845129 0 0 0
88 1 1 0.000000 41.488539 36.956613 30.263733 0 0 0
89 1 1 0.000000 8.204447 13.916154 13.346845 0 0 0
90 1 1 0.000000 17.239411 11.140803 33.623204 0 0 0
91 1 1 0.000000 46.548239 12.129169 5.137389 0 -1 0
92 1 1 0.000000 24.855985 13.924752 24.063068 0 0 0
93 1 1 0.000000 44.097114 6.052214 49.888710 0 0 0
94 1 1 0.000000 17.667797 11.796114 12.929553 0 0 0
95 1 1 0.000000 14.681199 24.135869 5.986051 0 0 0
96 1 1 0.000000 49.148917 7.490321 22.857268 0 -1 0
97 1 1 0.000000 45.390718 12.025215 17.585357 0 0 0
98 1 1 0.000000 4.011149 45.196772 45.175418 0 0 0
99 1 1 0.000000 26.175076 22.212325 44.130750 0 0 0
100 1 1 0.000000 26.209517 10.955079 31.864651 0 0 0
101 1 1 0.000000 6.799718 36.109248 31.780645 0 0 0
102 1 1 0.000000 22.925853 24.235654 15.674927 0 0 0
103 1 1 0.000000 4.200601 45.874404 36.355784 0 0 0
104 1 1 0.000000 32.491200 7.004908 48.099941 0 0 0
105 1 1 0.000000 38.863455 23.028065 34.875676 0 0 0
106 1 1 0.000000 41.791116 10.127434 10.920380 0 0 0
107 1 1 0.000000 47.276230 4.154418 30.028002 0 0 0
108 1 1 0.000000 18.267292 44.439060 46.394937 0 0 0
109 1 1 0.000000 21.990995 21.815182 1.478253 0 0 1
110 1 1 0.000000 33.001884 23.067126 11.613565 0 0 0
111 1 1 0.000000 39.712099 23.183613 26.821015 0 0 0
112 1 1 0.000000 30.865095 14.549540 11.122393 0 0 0
113 1 1 0.000000 46.734603 46.084771 39.508272 0 0 0
114 1 1 0.000000 22.010518 28.285309 6.555076 0 0 0
115 1 1 0.000000 34.382300 4.392247 31.917301 0 0 0
116 1 1 0.000000 30.041897 2.247027 11.678295 0 0 0
117 1 1 0.000000 10.301117 9.862335 48.407622 0 0 0
118 1 1 0.000000 0.640470 33.567139 1.311348 0 1 0
119 1 1 0.000000 34.854883 44.032146 23.883916 -1 0 0
120 1 1 0.000000 40.983278 10.075219 28.997082 0 0 0
121 1 1 0.000000 7.190430 8.448552 24.014505 0 0 0
122 1 1 0.000000 6.848454 23.277630 1.087882 0 0 1
123 1 1 0.000000 28.811935 18.097970 3.638617 0 0 0
124 1 1 0.000000 26.873512 40.238229 16.732428 0 0 0
125 1 1 0.000000 42.596124 28.809428 48.652036 0 0 0
126 1 1 0.000000 1.590366 27.127248 43.555118 0 0 0
127 1 1 0.000000 2.944847 16.281726 8.049686 0 0 0
128 1 1 0.000000 36.657527 24.241027 45.256570 0 0 0
129 1 1 0.000000 3.966349 21.603188 15.834767 0 0 0
130 1 1 0.000000 18.267952 17.021584 27.842678 0 0 0
131 1 1 0.000000 22.619858 5.731561 10.772349 0 0 0
132 1 1 0.000000 40.348736 26.203068 7.627677 0 0 0
133 1 1 0.000000 20.666280 41.199466 22.930914 0 0 0
134 1 1 0.000000 30.224724 43.666736 37.118889 0 0 0
135 1 1 0.000000 33.762708 0.772978 39.171268 0 0 0
136 1 1 0.000000 13.296690 40.108524 19.010101 0 0 0
137 1 1 0.000000 26.998355 9.699578 16.230691 0 0 0
138 1 1 0.000000 3.331033 19.638964 38.269331 0 0 0
139 1 1 0.000000 47.497540 31.212701 7.931596 0 0 0
140 1 1 0.000000 0.355297 34.423460 40.426229 0 1 0
141 1 1 0.000000 11.507650 31.120807 36.005546 0 0 0
142 1 1 0.000000 9.709312 46.952350 10.338649 0 0 0
143 1 1 0.000000 32.199042 18.917990 32.109022 0 0 0
144 1 1 0.000000 37.811679 39.499834 49.836356 0 0 0
145 1 1 0.000000 16.148746 1.692038 7.941384 0 0 0
146 1 1 0.000000 37.124618 16.037966 16.469691 0 0 0
147 1 1 0.000000 3.171506 21.612849 24.368832 0 0 0
148 1 1 0.000000 22.314218 13.847362 49.918759 0 0 -1
149 1 1 0.000000 31.626858 1.382271 25.388497 0 0 0
150 1 1 0.000000 14.706493 43.686492 5.071292 0 0 0
151 1 1 0.000000 44.290913 18.676843 13.055768 0 0 0
152 1 1 0.000000 10.957390 41.174769 40.186829 0 0 0
153 1 1 0.000000 0.906773 44.502246 4.060081 0 0 0
154 1 1 0.000000 22.310574 24.653960 36.055883 0 0 0
155 1 1 0.000000 10.520542 47.575680 31.343293 0 0 0
156 1 1 0.000000 20.886386 6.178914 27.668288 0 0 0
157 1 1 0.000000 13.206637 11.460151 19.640486 0 0 0
158 1 1 0.000000 27.043829 46.592607 45.013681 0 0 0
159 1 1 0.000000 24.745073 29.751282 41.853061 0 0 0
160 1 1 0.000000 36.971712 17.583210 6.460820 0 0 0
161 1 1 0.000000 21.949843 35.384006 48.586342 0 0 0
162 1 1 0.000000 48.691377 22.740893 7.900017 0 0 0
163 1 1 0.000000 13.350768 35.449242 4.872426 0 0 0
164 1 1 0.000000 5.178880 5.147790 30.895195 0 0 0
165 1 1 0.000000 0.341638 12.649294 29.292039 0 0 0
166 1 1 0.000000 42.665083 35.280313 38.996034 0 0 0
167 1 1 0.000000 3.973267 14.704346 20.400515 0 0 0
168 1 1 0.000000 9.569463 0.442032 17.711709 0 0 0
169 1 1 0.000000 33.883410 37.077952 39.876027 0 0 0
170 1 1 0.000000 9.027062 22.014026 33.027592 0 0 0
171 1 1 0.000000 3.335435 12.655844 0.973350 0 0 0
172 1 1 0.000000 4.904405 11.152355 40.631007 0 0 0
173 1 1 0.000000 44.777905 3.609994 42.286223 0 0 0
174 1 1 0.000000 2.501947 42.107755 11.758040 0 0 0
175 1 1 0.000000 26.294704 28.484098 49.581933 0 0 0
176 1 1 0.000000 3.372677 5.444097 47.726403 0 0 0
177 1 1 0.000000 37.438939 31.535603 43.568448 0 0 0
178 1 1 0.000000 15.799325 26.500977 30.379232 0 0 0
179 1 1 0.000000 39.685203 12.207192 0.720195 0 0 0
180 1 1 0.000000 35.727892 29.579630 29.539698 0 0 0
181 1 1 0.000000 6.620861 17.573313 45.415201 0 0 0
182 1 1 0.000000 49.264432 25.730607 0.908530 0 0 0
183 1 1 0.000000 31.681429 9.426163 23.041295 0 0 0
184 1 1 0.000000 26.636185 2.021227 19.200231 0 0 0
185 1 1 0.000000 37.261573 1.850614 19.757500 0 0 0
186 1 1 0.000000 11.689043 33.919500 46.098099 0 0 0
187 1 1 0.000000 35.042954 49.012482 47.517706 -1 0 0

Bonds

1 1 59 136
2 1 19 135
3 1 18 181
4 1 44 109
5 1 12 158
6 1 57 140
7 1 5 145
8 1 23 122
9 1 147 174
10 1 42 124
11 1 5 48
12 1 3 111
13 1 93 165
14 1 81 129
15 1 37 156
16 1 10 94
17 1 26 113
18 1 44 164
19 1 132 171
20 1 85 136
21 1 55 183
22 1 126 163
23 1 9 161
24 1 38 168
25 1 45 129
26 1 112 184
27 1 47 93
28 1 5 11
29 1 39 78
30 1 50 53
31 1 13 136
32 1 52 55
33 1 56 86
34 1 98 144
35 1 47 150
36 1 44 103
37 1 62 95
38 1 24 174
39 1 53 142
40 1 30 31
41 1 126 174
42 1 25 124
43 1 4 82
44 1 160 172
45 1 149 156
46 1 23 144
47 1 163 186
48 1 24 109
49 1 43 170
50 1 29 117
51 1 73 185
52 1 110 114
53 1 36 181
54 1 20 75
55 1 137 146
56 1 121 147
57 1 19 94
58 1 88 113
59 1 42 162
60 1 7 101
61 1 121 181
62 1 14 49
63 1 26 57
64 1 35 148
65 1 112 146
66 1 38 59
67 1 46 79
68 1 128 147
69 1 111 115
70 1 86 151
71 1 23 110
72 1 135 137
73 1 33 91
74 1 1 186
75 1 54 64
76 1 8 36
77 1 85 186
78 1 84 155
79 1 19 81
80 1 24 28
81 1 31 126
82 1 118 153
83 1 120 164
84 1 151 155
85 1 35 91
86 1 41 108
87 1 84 124
88 1 52 95
89 1 75 108
90 1 59 148
91 1 27 123
92 1 107 130
93 1 107 141
94 1 100 141
95 1 87 102
96 1 80 93
97 1 63 142
98 1 139 182
99 1 11 154
100 1 31 167
101 1 6 47
102 1 51 105
103 1 89 182
104 1 3 51
105 1 76 134
106 1 62 118
107 1 92 115
108 1 61 158
109 1 79 143
110 1 119 137
111 1 57 66
112 1 96 173
113 1 84 119
114 1 41 107
115 1 13 158
116 1 83 103
117 1 38 117
118 1 83 86
119 1 98 172
120 1 78 94
121 1 162 185
122 1 55 113
123 1 11 177
124 1 39 68
125 1 56 182
126 1 105 111
127 1 4 139
128 1 46 112
129 1 36 183
130 1 30 166
131 1 183 185
132 1 14 70
133 1 29 169
134 1 128 132
135 1 79 132
136 1 90 149
137 1 18 60
138 1 3 127
139 1 64 148
140 1 51 109
141 1 43 50
142 1 143 159
143 1 133 169
144 1 8 142
145 1 81 92
146 1 88 177
147 1 14 85
148 1 82 129
149 1 28 41
150 1 62 97
151 1 7 90
152 1 89 162
153 1 78 178
154 1 4 60
155 1 108 141
156 1 10 97
157 1 49 64
158 1 28 176
159 1 91 172
160 1 135 161
161 1 46 69
162 1 7 70
163 1 29 52
164 1 12 173
165 1 12 39
166 1 33 97
167 1 114 177
168 1 152 156
169 1 54 82
170 1 80 90
171 1 49 98
172 1 27 89
173 1 103 161
174 1 68 87
175 1 167 171
176 1 35 143
177 1 122 160
178 1 34 133
179 1 26 114
180 1 71 171
181 1 48 117
182 1 102 133
183 1 48 151
184 1 34 130
185 1 72 155
186 1 40 168
187 1 18 101
188 1 56 65
189 1 50 127
190 1 37 173
191 1 61 128
192 1 9 120
193 1 17 83
194 1 25 100
195 1 32 34
196 1 54 106
197 1 20 164
198 1 118 163
199 1 9 33
200 1 70 187
201 1 77 119
202 1 80 170
203 1 95 179
204 1 25 150
205 1 67 139
206 1 16 42
207 1 32 180
208 1 105 153
209 1 176 187
210 1 152 175
211 1 88 149
212 1 17 140
213 1 72 170
214 1 16 179
215 1 63 144
216 1 22 69
217 1 68 168
218 1 175 178
219 1 67 184
220 1 127 179
221 1 92 110
222 1 60 67
223 1 61 74
224 1 17 130
225 1 102 146
226 1 73 96
227 1 166 184
228 1 8 96
229 1 75 152
230 1 15 45
231 1 2 43
232 1 165 167
233 1 6 134
234 1 150 159
235 1 121 157
236 1 74 187
237 1 32 72
238 1 65 165
239 1 100 166
240 1 58 140
241 1 16 125
242 1 154 169
243 1 71 106
244 1 37 123
245 1 116 160
246 1 99 159
247 1 6 30
248 1 21 71
249 1 58 157
250 1 87 154
251 1 58 138
252 1 15 20
253 1 2 176
254 1 40 99
255 1 40 175
256 1 15 116
257 1 53 153
258 1 74 145
259 1 77 115
260 1 21 27
261 1 13 122
262 1 66 101
263 1 66 120
264 1 65 69
265 1 2 45
266 1 76 138

