Generated by ZY

96 atoms
1 atom types
136 bonds
1 bond types

0.0000000000000000 40.0000000000000000 xlo xhi
0.0000000000000000 40.0000000000000000 ylo yhi
0.0000000000000000 40.0000000000000000 zlo zhi

Masses

1 1.000

Atoms # full

1 1 1 0.000000 5.655821 7.064615 12.248606 0 0 0
2 1 1 0.000000 16.895462 24.773473 14.292752 0 0 0
3 1 1 0.000000 2.139440 3.493187 30.389582 0 0 0
4 1 1 0.000000 26.189448 18.829523 1.824554 0 0 0
5 1 1 0.000000 7.754500 20.800689 20.389300 0 0 0
6 1 1 0.000000 4.054379 39.353393 36.100206 0 0 0
7 1 1 0.000000 0.727345 24.589808 16.659254 0 0 0
8 1 1 0.000000 17.760564 10.952728 8.067093 0 0 0
9 1 1 0.000000 2.140989 23.873033 36.448036 0 0 0
10 1 1 0.000000 20.962104 12.914901 14.898636 0 0 0
11 1 1 0.000000 30.731608 9.146612 37.901456 0 0 0
12 1 1 0.000000 27.424070 10.740273 11.967200 0 0 0
13 1 1 0.000000 29.680008 24.948739 0.567738 0 0 0
14 1 1 0.000000 22.468793 1.910290 28.177871 0 0 0
15 1 1 0.000000 14.510262 23.953363 29.107725 0 0 0
16 1 1 0.000000 21.816892 26.127345 26.707128 0 0 0
17 1 1 0.000000 34.502077 11.009676 18.584952 0 0 0
18 1 1 0.000000 28.955324 31.584877 2.860103 0 0 0
19 1 1 0.000000 21.513419 12.981806 2.184826 0 0 0
20 1 1 0.000000 35.392155 20.118715 28.399556 0 0 0
21 1 1 0.000000 34.866494 19.152700 5.580783 0 0 0
22 1 1 0.000000 24.885443 13.734787 36.053635 0 0 0
23 1 1 0.000000 11.619571 27.597973 18.354923 -1 0 0
24 1 1 0.000000 7.740246 37.330214 29.929453 0 0 0
25 1 1 0.000000 34.826756 25.918514 33.859433 0 0 0
26 1 1 0.000000 33.783860 25.562606 21.872029 0 0 0
27 1 1 0.000000 35.435926 1.113823 19.782525 0 0 0
28 1 1 0.000000 38.104948 26.878622 27.593401 0 0 0
29 1 1 0.000000 1.014816 21.684391 23.496910 0 0 0
30 1 1 0.000000 29.414901 9.292346 23.648817 0 0 0
31 1 1 0.000000 9.267925 2.865536 17.510243 0 0 0
32 1 1 0.000000 23.029406 19.745821 17.812926 0 0 0
33 1 1 0.000000 30.953236 16.784544 33.090926 0 0 0
34 1 1 0.000000 20.196813 26.994134 33.775522 0 0 0
35 1 1 0.000000 11.325727 14.650983 25.442085 0 0 0
36 1 1 0.000000 12.582538 39.676779 11.818261 -1 0 0
37 1 1 0.000000 1.831251 28.517744 2.287643 0 0 0
38 1 1 0.000000 30.294293 23.757479 10.426051 0 0 0
39 1 1 0.000000 27.214686 35.857299 14.666156 0 0 0
40 1 1 0.000000 12.030068 2.502522 4.872946 0 0 0
41 1 1 0.000000 18.173729 12.332856 28.110564 0 0 0
42 1 1 0.000000 6.544988 22.452106 3.184980 0 0 0
43 1 1 0.000000 22.427947 25.224862 0.317841 0 0 1
44 1 1 0.000000 39.927097 38.620743 25.468399 0 0 0
45 1 1 0.000000 15.991983 0.427668 20.691350 0 0 0
46 1 1 0.000000 11.165064 38.458679 38.360980 0 0 0
47 1 1 0.000000 37.773959 17.672384 12.206166 0 0 0
48 1 1 0.000000 8.200096 15.045492 14.300674 0 0 0
49 1 1 0.000000 6.871618 29.993143 7.437591 0 0 0
50 1 1 0.000000 23.343732 25.941279 11.412018 0 0 0
51 1 1 0.000000 6.999531 22.081872 29.075826 0 0 0
52 1 1 0.000000 34.541365 9.632905 11.257675 0 0 0
53 1 1 0.000000 24.744154 20.885244 33.937504 0 0 0
54 1 1 0.000000 37.706827 5.031440 5.379712 0 0 0
55 1 1 0.000000 24.678657 7.480743 5.928289 0 0 0
56 1 1 0.000000 36.359043 4.871562 36.123078 0 0 0
57 1 1 0.000000 10.002671 4.123529 24.794904 0 0 0
58 1 1 0.000000 33.738592 35.634057 8.374486 0 0 0
59 1 1 0.000000 20.594906 31.143959 3.943963 0 0 0
60 1 1 0.000000 23.076180 16.754180 8.984672 0 0 0
61 1 1 0.000000 30.159730 16.755601 16.268378 0 0 0
62 1 1 0.000000 25.507588 36.546062 6.930060 0 0 0
63 1 1 0.000000 38.411294 39.872339 13.216850 0 0 0
64 1 1 0.000000 21.438132 1.124480 14.418331 1 0 0
65 1 1 0.000000 20.310517 33.678557 12.187695 0 0 0
66 1 1 0.000000 26.679930 1.105603 1.020724 1 0 0
67 1 1 0.000000 6.398293 21.931932 12.574563 0 0 0
68 1 1 0.000000 38.233434 32.442228 32.447410 0 0 0
69 1 1 0.000000 28.749381 27.729821 16.903190 0 0 0
70 1 1 0.000000 23.949258 6.726120 18.698369 0 0 0
71 1 1 0.000000 18.725210 1.969292 7.656782 0 0 0
72 1 1 0.000000 29.414327 2.844871 15.861493 0 0 0
73 1 1 0.000000 13.608289 28.661505 4.805818 0 0 0
74 1 1 0.000000 4.473135 29.929617 28.760904 0 0 0
75 1 1 0.000000 11.255394 11.159590 4.423447 0 0 0
76 1 1 0.000000 16.185742 8.304184 21.848851 0 0 0
77 1 1 0.000000 10.386271 29.264348 32.965875 0 0 0
78 1 1 0.000000 37.069756 32.441960 23.106740 0 0 0
79 1 1 0.000000 12.358438 23.606682 39.519786 0 0 -1
80 1 1 0.000000 28.680298 20.315798 22.852154 0 0 0
81 1 1 0.000000 35.182413 20.631825 38.600853 0 0 0
82 1 1 0.000000 13.928271 21.846961 8.260008 0 0 0
83 1 1 0.000000 31.014610 13.711444 3.343427 0 0 0
84 1 1 0.000000 25.230879 10.313241 29.719553 0 0 0
85 1 1 0.000000 0.680364 22.858472 7.041993 0 0 0
86 1 1 0.000000 19.895131 38.823895 37.347112 0 0 0
87 1 1 0.000000 34.038397 39.877532 1.413136 -1 0 0
88 1 1 0.000000 12.388898 34.736644 24.314739 0 0 0
89 1 1 0.000000 39.657109 34.578080 39.262130 0 0 0
90 1 1 0.000000 5.403365 3.404453 2.065619 0 0 0
91 1 1 0.000000 19.094685 19.909538 3.774998 0 0 0
92 1 1 0.000000 13.665067 10.178296 14.495305 0 0 0
93 1 1 0.000000 2.773366 37.360903 7.868986 0 0 0
94 1 1 0.000000 39.803532 12.266859 6.754835 0 0 0
95 1 1 0.000000 17.657364 20.080864 36.412147 0 0 0
96 1 1 0.000000 22.765164 13.132830 22.177376 0 0 0

Bonds

1 1 32 51
2 1 64 66
3 1 5 80
4 1 48 63
5 1 28 34
6 1 23 93
7 1 13 18
8 1 89 94
9 1 45 49
10 1 86 88
11 1 19 83
12 1 8 19
13 1 26 76
14 1 67 72
15 1 25 67
16 1 3 12
17 1 42 76
18 1 40 55
19 1 2 65
20 1 3 46
21 1 13 32
22 1 29 75
23 1 45 66
24 1 41 69
25 1 80 90
26 1 68 90
27 1 28 68
28 1 38 45
29 1 38 47
30 1 15 62
31 1 64 96
32 1 30 32
33 1 36 67
34 1 17 62
35 1 61 74
36 1 14 27
37 1 48 60
38 1 26 79
39 1 18 28
40 1 84 91
41 1 60 91
42 1 60 72
43 1 19 85
44 1 82 92
45 1 2 82
46 1 13 55
47 1 8 31
48 1 37 86
49 1 34 69
50 1 66 87
51 1 23 81
52 1 65 79
53 1 51 88
54 1 58 65
55 1 25 80
56 1 49 77
57 1 26 84
58 1 49 62
59 1 55 70
60 1 53 64
61 1 23 35
62 1 35 57
63 1 22 86
64 1 1 69
65 1 25 42
66 1 43 91
67 1 81 96
68 1 87 89
69 1 33 57
70 1 58 70
71 1 24 77
72 1 38 48
73 1 29 63
74 1 2 46
75 1 9 85
76 1 36 54
77 1 22 46
78 1 3 30
79 1 11 47
80 1 34 92
81 1 47 78
82 1 70 72
83 1 33 94
84 1 7 90
85 1 14 82
86 1 9 44
87 1 74 87
88 1 39 54
89 1 20 89
90 1 21 31
91 1 35 75
92 1 21 94
93 1 6 79
94 1 59 95
95 1 18 93
96 1 37 57
97 1 22 74
98 1 9 53
99 1 8 43
100 1 42 51
101 1 4 16
102 1 73 96
103 1 10 16
104 1 24 52
105 1 27 84
106 1 5 52
107 1 4 20
108 1 17 27
109 1 12 58
110 1 53 83
111 1 5 93
112 1 10 76
113 1 15 16
114 1 21 52
115 1 20 85
116 1 4 7
117 1 33 92
118 1 37 78
119 1 71 81
120 1 29 40
121 1 40 78
122 1 12 50
123 1 24 73
124 1 30 88
125 1 31 54
126 1 75 95
127 1 6 39
128 1 14 77
129 1 50 61
130 1 7 44
131 1 15 41
132 1 11 83
133 1 1 36
134 1 39 63
135 1 11 59
136 1 17 68

