Generated by ZY code

96 atoms
1 atom types
136 bonds
1 bond types
0 angles
0 angle types
0 dihedrals
0 dihedral types
0 impropers
0 improper types

0.0000000000000000 40.0000000000000000 xlo xhi
0.0000000000000000 40.0000000000000000 ylo yhi
0.0000000000000000 40.0000000000000000 zlo zhi

Masses

1 1.000

Atoms # full

1 1 1 0.000000 18.817789 0.755975 11.698346 1 0 1
2 1 1 0.000000 7.113803 17.824294 34.329763 0 0 0
3 1 1 0.000000 28.913748 37.230132 32.601764 0 0 0
4 1 1 0.000000 1.442095 31.780977 39.600662 0 0 0
5 1 1 0.000000 24.833623 4.897180 11.445264 0 0 0
6 1 1 0.000000 10.581741 2.025926 34.710861 0 0 0
7 1 1 0.000000 37.261211 10.154389 29.431975 0 0 0
8 1 1 0.000000 10.299001 18.069131 26.670080 0 0 0
9 1 1 0.000000 22.656068 24.744298 30.289621 0 0 0
10 1 1 0.000000 33.875018 14.263603 10.626845 0 0 0
11 1 1 0.000000 37.786374 30.571553 11.217413 0 0 0
12 1 1 0.000000 23.629748 12.407324 14.579730 0 0 0
13 1 1 0.000000 1.452642 18.404829 0.801257 0 0 0
14 1 1 0.000000 34.769591 24.023983 6.184537 0 0 0
15 1 1 0.000000 18.085721 4.651212 31.805789 0 0 0
16 1 1 0.000000 20.647661 17.702720 30.321060 0 0 0
17 1 1 0.000000 3.783037 13.013318 29.390229 0 0 0
18 1 1 0.000000 30.669876 10.965545 16.590281 0 0 0
19 1 1 0.000000 14.342504 16.339977 33.936570 0 0 0
20 1 1 0.000000 6.533213 12.945869 8.747135 0 0 0
21 1 1 0.000000 32.977772 2.244433 36.095951 0 0 0
22 1 1 0.000000 39.350535 14.307059 16.086983 0 0 0
23 1 1 0.000000 18.233946 11.175339 29.459907 0 0 0
24 1 1 0.000000 36.667374 30.242995 18.724568 0 0 0
25 1 1 0.000000 9.009008 33.890990 16.687195 0 0 0
26 1 1 0.000000 38.661102 4.499243 20.476065 0 0 0
27 1 1 0.000000 24.549813 11.513655 1.427369 0 0 0
28 1 1 0.000000 26.909842 7.238101 27.162139 0 0 0
29 1 1 0.000000 27.481885 16.177459 6.785560 0 0 0
30 1 1 0.000000 14.901138 23.125934 29.266748 0 0 0
31 1 1 0.000000 1.597801 36.093749 17.950858 0 0 0
32 1 1 0.000000 8.163574 24.503182 23.968828 0 0 0
33 1 1 0.000000 28.197172 38.643623 15.083702 0 0 0
34 1 1 0.000000 36.014054 27.617420 32.319138 0 0 0
35 1 1 0.000000 22.045305 2.497604 24.493678 0 0 0
36 1 1 0.000000 2.940952 18.916586 24.998327 0 0 0
37 1 1 0.000000 9.335790 9.464933 35.430610 0 0 0
38 1 1 0.000000 11.923355 21.721809 18.008029 0 0 0
39 1 1 0.000000 1.142397 22.275968 31.273611 0 1 0
40 1 1 0.000000 29.981093 16.156577 37.664144 0 0 0
41 1 1 0.000000 15.009450 26.161092 37.876683 0 0 0
42 1 1 0.000000 35.175813 20.625356 35.238305 0 0 0
43 1 1 0.000000 11.852268 3.592834 12.746193 0 0 0
44 1 1 0.000000 1.352396 21.684549 16.808605 0 1 0
45 1 1 0.000000 21.565877 25.968507 19.047490 0 0 0
46 1 1 0.000000 13.348903 10.036944 21.724929 0 0 0
47 1 1 0.000000 20.486224 9.096251 20.790032 0 0 0
48 1 1 0.000000 34.994652 33.925798 36.160408 0 0 0
49 1 1 0.000000 1.345438 37.347978 25.268144 0 0 0
50 1 1 0.000000 29.380434 8.911944 7.625257 0 0 0
51 1 1 0.000000 31.941556 12.990070 24.698027 0 0 0
52 1 1 0.000000 11.628668 35.714078 26.882590 0 0 0
53 1 1 0.000000 11.238898 10.417210 3.666229 0 0 0
54 1 1 0.000000 33.572392 4.923095 25.610734 0 0 0
55 1 1 0.000000 27.798381 12.443531 31.978920 0 0 0
56 1 1 0.000000 5.277509 2.638367 17.536784 0 0 0
57 1 1 0.000000 16.883133 14.920259 2.052116 0 0 0
58 1 1 0.000000 6.812867 24.228928 3.969428 0 0 0
59 1 1 0.000000 22.022578 4.377727 4.457768 0 0 0
60 1 1 0.000000 6.655243 26.834767 16.396216 0 0 0
61 1 1 0.000000 1.877377 4.468504 27.959884 0 0 0
62 1 1 0.000000 22.873814 35.242622 39.758222 0 0 0
63 1 1 0.000000 39.916754 19.756406 9.874885 0 0 0
64 1 1 0.000000 34.827306 36.349872 15.433186 0 0 0
65 1 1 0.000000 22.715417 34.289679 19.641126 0 0 0
66 1 1 0.000000 12.305099 4.553567 27.810180 0 0 0
67 1 1 0.000000 33.123240 24.612510 21.481215 0 0 0
68 1 1 0.000000 28.250962 31.044996 36.474413 0 0 0
69 1 1 0.000000 17.601144 38.197994 4.570277 0 0 0
70 1 1 0.000000 22.962460 26.266167 37.394183 0 0 0
71 1 1 0.000000 17.217581 38.969751 36.292848 -1 0 0
72 1 1 0.000000 29.117518 4.754379 1.672485 0 0 0
73 1 1 0.000000 39.768180 13.394599 6.282247 0 0 0
74 1 1 0.000000 25.722734 4.395888 18.609964 0 0 0
75 1 1 0.000000 29.127927 30.829622 17.592286 0 0 0
76 1 1 0.000000 1.283726 6.399474 10.031950 0 0 0
77 1 1 0.000000 10.587865 11.294822 28.338776 0 0 0
78 1 1 0.000000 7.474446 1.194954 24.196439 0 0 0
79 1 1 0.000000 19.302623 34.276579 26.357725 0 0 0
80 1 1 0.000000 8.965385 32.040306 9.060510 0 0 0
81 1 1 0.000000 34.201600 17.120734 3.384431 0 0 0
82 1 1 0.000000 33.816401 20.882045 15.273459 0 0 0
83 1 1 0.000000 39.585527 7.386439 2.276070 0 0 0
84 1 1 0.000000 21.918204 20.449497 23.773911 0 0 0
85 1 1 0.000000 22.755130 30.040523 6.145924 0 0 0
86 1 1 0.000000 12.360245 14.691023 15.668127 0 0 0
87 1 1 0.000000 1.492658 26.765747 22.539427 0 0 0
88 1 1 0.000000 16.558890 17.059143 9.736893 0 0 0
89 1 1 0.000000 17.696846 31.475449 33.209923 0 0 0
90 1 1 0.000000 28.679590 22.922925 26.718880 0 0 0
91 1 1 0.000000 29.813175 32.689731 3.788488 0 0 0
92 1 1 0.000000 18.641020 21.998040 4.032635 0 0 0
93 1 1 0.000000 25.693369 22.032678 13.359886 0 0 0
94 1 1 0.000000 32.359300 31.381606 25.255138 0 0 0
95 1 1 0.000000 22.438447 39.196528 30.880707 -1 0 0
96 1 1 0.000000 17.400683 8.527060 13.561925 0 0 0

Bonds

1 1 2 24
2 1 91 93
3 1 10 64
4 1 40 53
5 1 57 68
6 1 17 30
7 1 43 73
8 1 51 72
9 1 12 53
10 1 8 12
11 1 65 79
12 1 22 92
13 1 51 68
14 1 38 94
15 1 86 94
16 1 16 86
17 1 62 66
18 1 42 48
19 1 13 80
20 1 75 90
21 1 2 23
22 1 14 40
23 1 8 45
24 1 25 73
25 1 26 95
26 1 63 86
27 1 33 54
28 1 6 54
29 1 10 63
30 1 33 72
31 1 63 64
32 1 13 61
33 1 38 82
34 1 52 53
35 1 75 96
36 1 79 95
37 1 34 90
38 1 19 59
39 1 24 52
40 1 16 37
41 1 42 73
42 1 44 96
43 1 24 62
44 1 69 71
45 1 21 81
46 1 67 82
47 1 11 94
48 1 48 95
49 1 11 33
50 1 34 35
51 1 27 28
52 1 25 64
53 1 19 87
54 1 19 25
55 1 47 75
56 1 12 55
57 1 45 49
58 1 1 54
59 1 16 93
60 1 3 9
61 1 35 65
62 1 85 91
63 1 20 23
64 1 28 92
65 1 5 96
66 1 31 49
67 1 11 52
68 1 38 65
69 1 28 88
70 1 68 91
71 1 36 71
72 1 13 23
73 1 17 85
74 1 9 55
75 1 45 77
76 1 4 34
77 1 20 67
78 1 30 71
79 1 4 69
80 1 3 89
81 1 22 84
82 1 9 74
83 1 5 14
84 1 39 67
85 1 66 87
86 1 15 72
87 1 41 89
88 1 5 74
89 1 79 90
90 1 56 74
91 1 76 81
92 1 37 66
93 1 1 59
94 1 58 69
95 1 2 46
96 1 1 46
97 1 62 78
98 1 29 42
99 1 7 37
100 1 43 44
101 1 22 57
102 1 47 51
103 1 82 88
104 1 39 88
105 1 41 93
106 1 6 14
107 1 50 59
108 1 15 55
109 1 10 35
110 1 29 36
111 1 3 81
112 1 32 41
113 1 17 56
114 1 8 15
115 1 49 61
116 1 76 83
117 1 36 77
118 1 29 87
119 1 57 84
120 1 30 32
121 1 40 43
122 1 4 39
123 1 48 77
124 1 7 18
125 1 7 83
126 1 6 76
127 1 56 58
128 1 31 70
129 1 18 83
130 1 80 89
131 1 18 44
132 1 31 60
133 1 47 50
134 1 50 85
135 1 27 78
136 1 58 60

