LAMMPS data file via write_data, version 2 Aug 2023, timestep = 20000, units = lj

187 atoms
1 atom types

0 50 xlo xhi
0 50 ylo yhi
0 50 zlo zhi

Masses

1 1

Pair Coeffs # morse

1 0.1 1 10

Atoms # full

175 1 1 0 9.04327110016295 1.910930066757692 1.810119637293037 0 0 0
22 1 1 0 7.977955079411593 6.721809922980503 10.058536867033437 0 1 0
173 1 1 0 7.193924716437422 11.376573361186676 0.5896966643908543 0 0 0
38 1 1 0 15.935333794181247 6.973338924541598 3.8970928716390203 0 0 0
39 1 1 0 22.043570138789985 1.7873683000913492 7.9946727381023655 0 0 0
51 1 1 0 24.648844996169252 10.735472135784049 7.580589312967345 0 0 0
30 1 1 0 32.227233809682986 4.214369413044945 8.471062614080486 0 1 0
3 1 1 0 33.682043100911955 12.380714943111755 3.5349882056532658 0 0 1
138 1 1 0 33.558507717153574 12.009509950555424 12.16295363720884 0 0 0
152 1 1 0 48.83735378217647 7.016484587302007 8.180852774885091 0 0 0
181 1 1 0 41.55867145029354 2.526523105964461 9.526408753365834 0 0 0
12 1 1 0 42.028750539564705 7.377152732969267 0.7541591048022328 0 0 0
171 1 1 0 1.4363756752857264 17.24355000723762 6.510027703196379 0 0 0
163 1 1 0 11.692901138416497 17.755004415329378 5.852323109308891 0 0 0
155 1 1 0 6.014205660537023 24.575401377376835 4.0377430040769875 0 0 0
156 1 1 0 20.334534734882183 17.725236030470708 8.64162970947924 0 0 0
98 1 1 0 28.598377904355523 20.19722943868397 2.565764508751961 0 0 0
80 1 1 0 36.2053534428065 20.835855799861864 7.469109921712222 0 0 0
186 1 1 0 42.290862129761344 13.342103706787155 7.697633109999395 0 0 0
187 1 1 0 44.656398888904995 21.77770784911762 2.1640526133859987 0 0 1
182 1 1 0 45.58801659449747 20.7665241510451 12.077400410151979 0 0 0
71 1 1 0 6.993076654947875 31.30985961619901 10.05997538197093 0 0 0
104 1 1 0 2.714623933495471 34.13084096481713 2.310812015389812 0 0 1
150 1 1 0 14.741264526498604 25.450625982890685 9.20740299511318 0 0 0
23 1 1 0 12.077799912747306 33.291637305897275 2.325081678893801 0 0 1
50 1 1 0 22.739942026183837 26.31726597652184 6.050096520172501 0 0 0
59 1 1 0 23.07760118462867 33.11721151060933 11.033862160080217 0 0 0
8 1 1 0 31.713923251669545 29.86856737201729 7.818679805100133 0 0 0
54 1 1 0 29.592164739842676 35.02963629222831 0.42327975916640026 0 0 0
66 1 1 0 36.503618231697935 26.977191236297468 0.7260590235364666 0 0 0
19 1 1 0 39.05807895281531 36.487677057935144 5.4956269413845344 0 0 1
43 1 1 0 39.575061587384674 28.589028550299705 11.409286096420827 0 0 0
74 1 1 0 48.43268601509615 27.93848707627629 7.395241333492525 0 0 0
165 1 1 0 48.12581826737443 36.03324979117246 9.90218724517156 0 0 0
118 1 1 0 3.6780563229754617 42.13047148650186 7.579099644030612 0 0 0
52 1 1 0 12.447807469958759 39.3204108454548 8.511968093620556 0 0 0
170 1 1 0 13.965093113542368 48.81467426289637 9.04626555601009 0 -1 0
79 1 1 0 20.502146891991497 38.63079681455711 3.867096511541608 0 0 0
109 1 1 0 16.406178125224955 46.32366378512666 0.19375017811169631 0 0 0
9 1 1 0 20.77042419119461 42.78802697742668 12.103988770519257 0 0 0
10 1 1 0 28.11295100049978 39.286793190993386 8.13688532386331 0 0 0
47 1 1 0 25.90007019995593 45.45262339237942 2.341692787563316 0 -1 0
73 1 1 0 36.556273674398774 44.83483202748445 6.692998845272142 0 -1 0
77 1 1 0 49.7344847301011 49.166059819347275 3.7801657101883412 -1 -1 1
27 1 1 0 46.40965911563646 40.796727327825195 1.4627651497962852 0 0 0
58 1 1 0 45.50986757752982 44.93025079419248 11.054875771711945 0 -1 0
84 1 1 0 2.8569983907291556 0.12218160378188733 13.352700369738033 0 0 0
101 1 1 0 11.346739557497422 7.312032407057876 19.283855573407795 0 0 0
178 1 1 0 1.3968004537958125 4.761688075227526 20.273775749249655 1 0 0
108 1 1 0 18.03825124812909 8.842692777257332 13.139600349961116 0 0 0
6 1 1 0 18.81092357797478 10.247643736401768 22.459536845476006 0 0 0
158 1 1 0 25.571404824860593 6.000085603187759 15.633317817770816 0 0 0
162 1 1 0 33.3700396641994 5.304279833752511 17.817198064416253 0 0 0
120 1 1 0 42.52749448682421 5.3475128295960594 18.814822805076915 0 0 0
35 1 1 0 46.848708865584165 12.757385617765 23.710146002539116 0 0 0
46 1 1 0 10.48512907080106 14.521341932267676 14.475619633262882 0 0 0
116 1 1 0 5.5868899353229 13.809824388524149 22.879744312637154 0 0 0
28 1 1 0 6.030190131060255 22.406992523920902 14.043991843044457 0 0 0
96 1 1 0 8.116223486386811 23.51521912844311 23.13117525841279 0 0 0
135 1 1 0 0.6747538857283665 12.776546081858822 15.006954746331214 0 0 0
94 1 1 0 14.54280787940033 21.36076976062079 17.98643239500165 0 0 0
17 1 1 0 22.798385535217967 15.416111032751582 16.44370728666452 0 0 0
81 1 1 0 22.527758311111075 24.67166225143759 15.501310985846539 0 0 0
151 1 1 0 29.635511648372447 13.897283743572899 21.970570039297957 0 0 0
82 1 1 0 26.12162859445994 23.121961919339324 23.315040774677087 0 0 0
122 1 1 0 29.620487241552855 20.107082500882438 13.240458248018582 0 0 0
142 1 1 0 36.913881982621426 23.29373164023789 18.244131581029322 0 0 0
44 1 1 0 40.92876037126521 13.73390591132447 16.791684920059858 0 0 0
72 1 1 0 46.20693456591414 21.475758733617397 21.248882254113973 -1 0 0
15 1 1 0 4.821316975771953 31.469678354316528 20.404993647747848 1 0 0
180 1 1 0 17.23388279405883 25.445146914280045 25.635954269347256 0 0 0
91 1 1 0 12.811542041628778 29.88483084008638 17.349114024856906 0 0 0
2 1 1 0 21.864359370233934 32.30537579934713 20.540344820546164 0 0 0
102 1 1 0 30.13684775820506 29.783550046033728 17.742075525519244 0 0 0
90 1 1 0 29.704943248443676 34.63134896338934 24.77947841052997 0 0 0
146 1 1 0 35.89418608326762 36.92804438213766 13.4259222768635 0 0 0
157 1 1 0 47.547324275582255 29.113758319429902 15.917144442238078 -1 0 0
78 1 1 0 38.33419852581652 32.26481149469269 21.02967881605701 0 0 0
145 1 1 0 48.01588635248077 35.736954622465205 24.081955807181913 0 0 0
128 1 1 0 5.349215279617406 38.08092227673418 15.361928591124421 1 0 0
53 1 1 0 9.920374215155746 48.228219484873456 18.271842274662266 0 -1 0
64 1 1 0 0.9232024981943874 44.94557407417973 19.85562206235654 1 0 0
25 1 1 0 13.781409339592251 39.043421605161505 17.712682615719668 0 0 0
61 1 1 0 19.097852486205852 0.3390220463904745 18.363448647000613 0 1 0
183 1 1 0 22.110917611242783 41.34664657442672 22.97017613134514 0 0 0
18 1 1 0 28.149109146823935 47.202996138256665 13.643883620835332 0 -1 0
41 1 1 0 27.72689577168339 38.88220526474508 17.0712972040789 0 0 0
167 1 1 0 29.120920623788937 47.64644477340058 23.197905036221364 0 0 0
110 1 1 0 35.23426718616436 41.337316865080425 23.20599489373151 0 0 0
107 1 1 0 42.35204276564815 47.57856869924416 22.347582327684734 0 -1 0
68 1 1 0 36.94075562303535 47.68214999638693 15.645211472462972 0 -1 0
75 1 1 0 42.95965481040651 40.01023611483431 17.680125350487234 0 0 0
166 1 1 0 8.255869300008802 7.572533897019023 28.514845208319716 0 0 0
88 1 1 0 1.941920747637422 6.1143225217142625 35.62561753921042 0 0 0
161 1 1 0 11.760816515003706 6.795332017964223 36.971762995697276 0 0 0
141 1 1 0 17.14643382649296 11.431388937736276 32.54597981008941 0 0 0
130 1 1 0 21.35669052080201 3.2319453011284134 35.99717161814076 0 1 0
154 1 1 0 15.977755709093532 3.600710670620256 27.246278806136146 0 1 0
70 1 1 0 25.600927959441968 4.969133444170015 26.180370467243947 0 1 0
29 1 1 0 35.7097549272549 3.5051585059887276 26.461248811330538 0 0 0
48 1 1 0 31.127167944898346 9.722852080321182 31.610168337918825 0 0 0
153 1 1 0 30.09708620966577 0.7624223345187996 33.17947829134029 0 0 0
119 1 1 0 38.1711120359009 5.206000015311248 34.90330910240681 0 0 0
31 1 1 0 43.465612738216464 12.219241701965634 32.186041031073 0 0 0
97 1 1 0 45.1810049941767 2.715965780492699 30.46079493841729 0 1 0
33 1 1 0 37.206688153197746 11.351235711811823 25.812961777093154 0 0 0
159 1 1 0 7.5537741236495295 15.186911512005235 32.80314254052152 0 0 0
106 1 1 0 8.25642338476546 23.668462394909263 31.90495269828864 0 0 0
32 1 1 0 13.440888968201895 17.034498307579803 25.86138165325345 0 0 0
127 1 1 0 17.129205014254435 20.740914208434596 33.20431733604611 0 0 0
93 1 1 0 23.321532628518845 15.35410032926551 27.651582639370726 0 0 0
115 1 1 0 25.40463651352637 24.50950591923115 32.29244137547099 0 0 0
85 1 1 0 26.909403617490074 16.157610211647043 37.06398444412001 0 0 0
114 1 1 0 32.42785737146725 18.863579102289965 29.943963377632244 0 0 0
149 1 1 0 49.652577787866726 18.97085166724888 31.121977624436873 0 0 0
60 1 1 0 40.505088460394774 20.22630843027928 27.891282356515575 0 0 0
40 1 1 0 5.199947641329269 31.720087185042225 28.834423315702647 0 0 0
111 1 1 0 7.187827002419302 32.33020431305667 38.09385403956807 0 0 0
144 1 1 0 13.546866618640834 34.45372339449049 25.273956319188137 0 0 0
113 1 1 0 22.46702431148413 33.41462570286866 29.43356061200016 0 0 0
105 1 1 0 15.189983510914804 29.713959582913894 32.89517393468228 0 0 0
164 1 1 0 34.28452826686522 26.75951063930515 26.77748263506029 0 0 0
42 1 1 0 31.363811109958235 31.610303539814172 33.73610062657496 0 0 0
160 1 1 0 38.513640396365986 26.35572068165508 34.996752553249046 0 0 0
26 1 1 0 40.53316331904936 36.68145429902363 29.494590891072793 0 0 0
11 1 1 0 43.995977672511586 28.458016120445354 28.00672777521004 0 0 0
126 1 1 0 49.65557392867337 27.14847390677994 34.82710512224359 0 0 0
125 1 1 0 6.116291542979125 40.358273062633714 25.01715222148713 0 0 0
184 1 1 0 11.096978237237828 39.40072965786852 32.6150122466281 0 0 0
117 1 1 0 4.435348569442678 0.015770951538300437 27.288336949953624 0 1 0
136 1 1 0 1.5155026131479603 47.727740993144394 36.08536861693925 0 0 0
143 1 1 0 10.509492957160104 48.53240338000005 33.76381147336475 0 0 0
21 1 1 0 0.9916731269422709 39.00605207037627 34.44810137994991 0 0 0
49 1 1 0 13.90347852463692 44.81492791631606 26.071699415685018 0 0 0
124 1 1 0 19.766213370263635 39.047332105219475 36.18772841642251 0 0 0
112 1 1 0 21.245523965696794 46.86757021977362 30.15115342596628 0 0 0
95 1 1 0 28.454520613559527 41.17425139723421 30.543027690085612 0 0 0
13 1 1 0 37.65900384697737 45.34243984894859 31.244035774650722 0 0 0
174 1 1 0 35.13749891428633 39.959132800180406 37.872651447623426 0 0 0
179 1 1 0 46.62627037558252 43.79308121005318 28.24026404471857 0 0 0
134 1 1 0 43.459633377804224 42.519590154705924 37.134370440458 0 -1 0
185 1 1 0 1.6236063468254125 5.150718767290835 47.558495749858665 0 0 0
137 1 1 0 7.365996839659948 49.65671884785082 43.00671234792601 0 0 0
5 1 1 0 14.976539274737922 5.267582277551205 45.030043307627984 0 0 0
36 1 1 0 21.606386372791132 10.853752814377389 41.13377951972684 0 0 0
123 1 1 0 23.428982084605398 49.650369599272175 45.44214316804602 0 -1 0
147 1 1 0 26.384476731623614 6.579717154667359 0.0721934925074521 0 0 0
169 1 1 0 33.24203956958104 1.3960568039673582 49.92349192270475 0 0 0
65 1 1 0 29.19300499520856 6.540676339548444 40.592063914252655 0 0 0
45 1 1 0 37.276160946253086 7.079878491549764 43.65806383513082 0 0 0
148 1 1 0 43.61926975753103 1.0271587922822298 41.03552022412597 -1 1 0
168 1 1 0 45.51143196920128 9.319536671594696 41.17836565348549 0 0 -1
92 1 1 0 4.154316659153015 12.716482890728708 41.6466448126106 0 0 0
24 1 1 0 9.341440573073386 19.734596234121103 47.67854910655309 0 0 -1
133 1 1 0 5.893980185796071 21.44008443795024 39.79211760126807 0 0 -1
86 1 1 0 20.898170215814957 14.461450901446263 49.708802478267486 0 0 -1
83 1 1 0 13.530643021158067 14.769838498499677 41.47110434274759 0 0 0
172 1 1 0 21.46743842940144 20.907433895365088 43.02968451752844 0 0 0
176 1 1 0 36.86643845097352 14.072679956251635 37.85659755505052 0 0 0
16 1 1 0 29.68035949542843 13.873780415407216 45.5194030909701 0 0 0
76 1 1 0 31.07965534113544 23.826703077841366 38.98924070890614 0 0 0
69 1 1 0 47.946978822399316 13.551654102789625 48.6089818074934 -1 0 -1
139 1 1 0 38.44753088102047 16.34644403087112 47.11246565268613 0 0 0
1 1 1 0 45.368364178823285 18.661828822306955 39.39097283373972 -1 0 0
140 1 1 0 39.34850218327554 24.227128912615797 43.18943304574698 0 0 -1
121 1 1 0 7.384709471702035 29.61623815402075 45.98665863637702 0 0 0
131 1 1 0 0.350646526379952 35.64838104224591 43.93672292971339 0 0 0
87 1 1 0 15.632946295516511 25.17668188520671 0.1549924424277624 0 0 0
67 1 1 0 13.689983282985718 25.592247812239094 40.92753437286176 0 0 0
99 1 1 0 15.131681162240747 35.68829201886991 42.95501498216172 0 0 0
55 1 1 0 21.54728948183031 32.10750647350699 48.29446235454053 0 0 0
129 1 1 0 24.123517887324457 30.402374274136523 39.620524279742106 0 0 0
89 1 1 0 28.108380433390195 26.278296980631353 46.53882785236185 0 0 -1
103 1 1 0 34.26978780186877 31.939869475723043 42.17594341322781 0 0 -1
177 1 1 0 42.74401651197347 33.640549264989 38.38291828822455 0 0 0
100 1 1 0 48.236948606048045 25.562102897713554 44.11016261685234 -1 0 -1
14 1 1 0 44.32152967219903 31.65943611684088 49.638726085380114 0 0 0
57 1 1 0 8.52554447016112 41.98777417126081 49.016383120865235 0 0 -1
7 1 1 0 8.225535677564444 41.21781012835517 40.69995377871624 0 0 0
20 1 1 0 49.89810932430734 44.68619843412257 44.140826161591896 -1 0 0
4 1 1 0 15.62637305338277 46.0299780395747 41.56121684378492 0 -1 0
63 1 1 0 21.219977348444687 40.88464412515432 45.0838969445892 0 0 0
37 1 1 0 26.175949818514972 44.814204461926685 39.049335938851385 0 0 0
56 1 1 0 34.8637633871646 48.26667826314146 40.82167982770524 0 -1 0
34 1 1 0 33.19039149586727 42.56191209666003 47.89534746384469 0 0 0
62 1 1 0 41.407480730888345 48.048019504701294 49.0667744809506 0 -1 0
132 1 1 0 40.620055385286214 39.51124614552711 44.67069665346909 0 0 0

Velocities

175 -0.27248739217034196 -0.408033600572036 0.024768215543094135
22 -0.14091115097083973 0.9471957496492754 -0.9145073971470522
173 -0.5244866736235891 -0.7051793532299863 -0.5712419427425499
38 -0.22490996205354188 1.0517768035918245 -0.8481541144028857
39 -0.8043690528610588 0.5214128857327405 0.1798223410056216
51 -1.6478526278307561 1.1319618128354536 -0.7091577872410224
30 -0.41051025872748526 -0.41746650338315694 1.1968229625677094
3 0.5578560907926011 0.2618826981993815 2.077476468372263
138 -0.5590429505580455 0.6397405925038816 -0.01040582993720038
152 -0.14641459262161022 -1.142019688203753 -0.8631561157240085
181 -1.6680292561996175 0.0827486793494634 -0.34179844094696327
12 0.44441640727007703 -0.10382162770888038 1.1437971509415439
171 0.02810972837350059 -0.9771119516684497 -0.2364516041718887
163 0.309762957835026 0.9339278244774099 -0.32474321700614983
155 0.010042414017809314 1.0549697209347728 -0.1333880430863171
156 -1.3542643108201342 -0.934207120379455 0.6214532525536959
98 -0.39528363802560934 0.4736744076431722 0.5941358350023096
80 0.7492719297420335 0.2619538596688299 -0.6109635847077133
186 -1.2715872962772092 -0.15879434106221382 -0.8671254718882521
187 -0.1310940360527678 0.6293702723073125 0.8020103070231698
182 -0.7455626296507207 -1.4038758046649575 0.34199809418733085
71 0.7971518035160912 0.6370298906329211 -0.26784376797117687
104 -0.39612736625028877 1.6077770132843705 -0.2259487556604529
150 -0.19905394832748025 0.007222495298326109 -0.608252840767941
23 -0.7607759097066228 -1.3863127942464506 -0.841389121588602
50 0.6958662873437141 0.6372720216318549 -0.4275118243362227
59 0.22005834520859338 -0.7418466021914717 -0.10438126729998387
8 0.4268361028774049 0.2448654366894179 2.057132054860828
54 -0.0013230076719038624 0.8777009061528973 -0.035510445950524654
66 -1.4131248452841432 0.11436766998465414 -0.8233127819729361
19 -0.8951390604264595 -0.6865742041443572 -0.02872007797107046
43 0.8057349575816047 -0.32234369122581025 1.0101096972257007
74 0.4503152189066173 -0.2145565239218476 -0.03853811839550934
165 -0.7315232189317262 0.8981449736928429 -0.37339438941348796
118 0.22344795316671318 0.9111158128853643 -0.8537525201203507
52 0.261608830287809 0.6597208346206835 0.8814307080453087
170 -0.40864393708306557 -0.12802390232342875 0.4154423583707454
79 0.14925507065532914 0.46557709988983415 -0.8437949878621961
109 0.5266088711258662 -1.0742928164964074 0.6932943469076691
9 0.39503225883244836 -0.5961791468682777 -0.018930686659401615
10 -0.87764880645501 0.10771702725587003 0.28629494901597113
47 -0.39329601439865697 0.7183867792158463 -0.44305997805810565
73 -0.3155783008772772 -1.0107201941089339 0.10460952289925626
77 -0.3016372796614048 -1.5152023300740896 -0.6447551124635142
27 0.7413164669723188 0.8845839830066472 0.16535060824410527
58 -0.9516695827605459 0.9808505730355865 -0.31476948812463473
84 -0.13200317759535354 -0.7556141120351767 -0.11063585479310216
101 -0.5822265617642537 -0.9996501297691592 0.2822897513526087
178 0.15953718178621612 0.24862666939390085 0.25644601347367285
108 -0.6902862083763173 -0.1692602402431242 0.3133157940527533
6 -0.1430836840645536 1.4422388509918296 0.0466594787769458
158 0.1818307268688308 0.44277754135033615 0.3825739514001052
162 0.8157185885076238 0.244264356444719 -0.6503198563155823
120 0.41756389031874236 -0.48071001960132537 0.41971040005221866
35 -0.8776787146295366 0.2004780623454998 -0.9960275669856987
46 0.6756934165241149 0.2703134978308462 -0.8046101644750644
116 0.028622256505577374 0.45742449597853563 -0.09143732697200899
28 -0.9168856937871035 -0.0011581696473035984 1.065999965185075
96 0.07687816481243438 -0.012327759737225838 -0.8376399369807909
135 0.040860167730037714 -0.8945532975174959 0.5382819932791385
94 0.8110954708881941 0.7608041773077714 -0.3259009810070272
17 0.5703553339936321 0.008537698835416262 -1.2337065286529358
81 0.4896597770731729 0.34920002040682396 -0.27841217113079403
151 0.42785896291488146 0.528444675272548 0.7467930977400846
82 -0.533457945592485 0.5035613671701908 -0.6481914608552152
122 0.19890640924853253 -0.22927240314168032 -0.2679656806225194
142 -0.4189664862580038 0.20730248553988162 0.02821024877829848
44 -1.5727038073593322 -0.6095904116711277 -0.3034409181422455
72 -0.12440167173816087 -0.8877581286814996 0.5379768218376193
15 -0.39237769899193853 0.09618932515505947 0.1698297944447137
180 0.022678000205803447 -0.3970817496340891 0.6945058092742855
91 -1.0363597153934785 -0.7714994884272958 -0.15670154833168246
2 -0.6709674748122004 0.782948775407761 0.6139666662649745
102 0.6913098201848138 0.2546751440630459 0.06554130316596715
90 0.29210023225652854 -0.7080750781773166 0.36306832394098115
146 0.19849185098639893 -0.12043147529239055 -0.16361960045158613
157 1.2744603010258146 1.2049734370582044 -1.6712119897785689
78 -1.2446574942507942 0.24320895625441818 0.04618877817355589
145 0.6735967627164215 -0.418832836675829 -0.35914539505896115
128 0.08771003531798552 0.9351354857866057 -1.1590796765866207
53 0.6212916498427771 1.1130916156475499 0.11577824372634624
64 -0.5686054174541323 1.0196218900375928 -0.13175478946315308
25 0.20148110280348325 0.7102249982317492 -1.6218748477920282
61 0.11140113662429875 0.7650084561638856 -0.013342012971559828
183 -0.29484155327534256 -0.5302571331691679 0.8460655215685559
18 -0.49549831440432257 -0.49817973420921363 0.4558388892305002
41 -0.060410767557212204 1.1042066043584682 0.5313431170145342
167 0.7009201946837385 -0.04219531413574462 -0.6590430181093759
110 0.6007902944143014 0.04316129594376161 0.8320713322210762
107 -1.0082428266857413 -0.7597099603708188 -2.253994943094008
68 -1.4506112028050955 -0.33450022540075985 -0.6845726669037366
75 0.656238975351199 -0.17771217845251158 0.9637443602214603
166 -0.43165625610675545 -0.8486501194544074 0.04471614411153021
88 1.5412042399362005 -0.04472938816964964 -0.8353058657399954
161 -0.5344587717553931 0.11034348932473562 -0.30272012257218633
141 -0.11817793755278286 -0.2987646379275653 0.18356911911045104
130 0.6868644082298706 0.057273504386952584 0.34883060353756407
154 0.9942090606998392 -0.21879798746809478 -0.03425304384182105
70 0.19019936081555047 -0.3376982589010747 0.33744939495076726
29 0.2732062217857428 0.7223714316005003 -0.7545518941870127
48 1.2322657652373175 0.5083817866929947 -0.2443620879580941
153 0.36170931936273265 -0.3079741973970675 -1.060804988547607
119 1.234474566264009 0.6569218374271162 2.2928497150136242
31 0.33253634394276127 -0.5674896921582543 0.46568470127270317
97 -1.4413317481585497 -0.3484091693411482 -1.6334385446893767
33 -0.22509291995487332 -0.06701846548714863 -0.5404328954251295
159 0.8601934405717296 -0.5789350174454345 -0.4452718923855139
106 0.8496475886123237 -0.27245305938056824 0.24015045618615483
32 -1.1770294367410798 0.03837975544165952 0.7970920528856765
127 -0.5526651688703488 -1.0104548578257502 0.7086376310720447
93 0.19161499360949047 0.2918911159280234 -0.5425894824147001
115 1.3450823953025612 0.3472064338417585 0.36846551243659537
85 -0.4334281258319173 0.9944442282662367 -0.2651410901989348
114 0.8668918874661365 0.18032230023786153 -0.3926618623481188
149 -1.1595204963258194 1.6108467733026337 0.32743480544255316
60 0.6438872457423114 0.09011882452065027 -1.623120691254338
40 0.9539485703204676 -0.1875815008027512 -0.423131776440223
111 -0.8551266951577134 -0.8040049713049934 1.082278538097091
144 -0.4264889457846202 0.5321068292214262 -0.4287581863427501
113 -1.0911156777253472 -0.42653042579031264 0.7593180529609146
105 -0.9739242990799519 -0.4975130453866161 0.4484717049450545
164 1.0260710914322715 1.9440299748882899 0.1560418437280373
42 1.1568007769755442 -0.08578908116469484 0.7456441008084058
160 0.35429996949108467 -0.2781437160304549 -0.8629749439799114
26 0.4498285213202464 0.5640926036002889 -1.02203298898592
11 0.9550515306679086 -1.0955228846275107 0.0546881430707078
126 0.35868384956912763 1.3545251278382446 -0.77382820297714
125 0.7212083899620076 -1.8849474471374026 0.37689251753401865
184 1.6895599489685726 0.6397277975453594 -0.7024004274527372
117 0.34289605541809476 0.44371614514430974 0.1898550972553438
136 0.21443871352565094 -0.7530538964239567 -0.867066185242404
143 0.18140559948352883 -0.5486065135223483 0.015280454207189426
21 -0.14962449470039316 0.26555282156094545 -0.16466591078781573
49 -0.6199683191552229 -0.3975837491878133 -1.355047882594341
124 1.0711009727223135 -0.44890056585516686 0.7768320867977602
112 0.3072922613273976 0.41620992641570215 1.2703530700474992
95 0.39760969976681676 -0.3860434727466562 0.5503479359440427
13 0.7666847428447738 1.2695972797353823 0.46316098345901513
174 0.6815794391099663 -0.40611148090871296 0.8990794871185502
179 -1.1331375507750974 -0.08661537992116826 -0.38524699382032707
134 0.7838588305624388 -1.1003398494053707 -0.22755488429503734
185 -0.45558569263274995 0.06738778559226948 -0.7061168392549305
137 0.5664687816374174 0.33865677699085395 1.4362388440976044
5 -0.5921183352486091 -0.6404542772311191 0.8179779165265696
36 -0.2624034180678802 0.6937147581484568 -0.6260442161199655
123 0.2970738881503494 -0.8918167766153218 -0.36370318500713383
147 -0.6322851149393027 -0.1099866643677556 1.4679010206237961
169 0.447234336664777 -0.3113422420911621 -0.048982049804020183
65 0.7269909290377641 0.34122988402448495 -0.5570668385123246
45 -0.48922906970720376 1.4941280004190538 -0.8098457684981116
148 -0.41900838101318 -0.3859602722437314 0.7553527792265717
168 -0.13837465574342794 -0.8001678804350669 0.7427161513837263
92 1.4695298822388503 -0.5018848433203112 -0.008649478729651576
24 -0.7996343181680652 0.11237385493331402 0.010051656300279134
133 -0.21994614105221874 -1.1066005914546262 -0.34950754885975016
86 0.7725139755511323 -0.27740763247770944 1.283329634365526
83 -1.1605671102312887 -0.0613919754523758 0.14871489826950304
172 0.9376751004970507 0.3930941079684841 1.1947496977298109
176 0.6652109241229469 0.22614383495487014 0.12052033036212083
16 -0.06821244336040527 -0.2322378140973236 0.21697603486206327
76 1.536418100874982 0.7554494655668144 0.6318862043277168
69 -0.2082913733360158 -0.37362265911742715 0.20226831285951952
139 1.6038365055282602 0.3902702594440265 -0.45053556626511143
1 -0.5922638840197965 0.5520448714373889 -0.4615625591256184
140 0.2564854264009923 -0.5519326448276294 0.6013972793134709
121 -0.4930250647058889 -0.8193194314091145 0.615260234355523
131 0.32722431940834446 0.512090687831081 0.2543932452835794
87 -0.6843104849482813 0.38399203493949224 0.15561631442733478
67 -0.6747635176318703 -0.8237909660585557 0.701944644210427
99 -0.1409864369258277 -0.2637955489574348 -0.06782705697618367
55 -0.419366346816393 -0.7937213665524522 0.5363953269745253
129 -0.4311663356625684 -0.04798187963973534 -0.0253547245182522
89 -1.1567924749199958 0.04100129585099379 -0.776696370315161
103 -0.01721695511535837 -1.1955492917771797 -0.4529827008722865
177 -1.5689902947183891 -0.3827535986487383 0.020079568679178712
100 0.02045072596694482 0.26795086771050636 -0.36414064681750236
14 -0.5854219236016748 -0.8750663726630008 -0.06196813619655961
57 0.9141170731905256 0.5553112175702324 -0.08448464014910494
7 -0.05832937964560687 -0.2838310775089605 0.17695187056185824
20 -0.8541496656698366 0.5659356106011608 0.41414431965433285
4 0.10329378100428263 -0.5497515560209881 1.7145968924984298
63 1.5855404717861512 -0.9032546997121345 -1.2657637392255863
37 -0.2480712868516801 -0.041537952551062116 1.3360181903570294
56 0.7112873156084506 -0.3481859153082796 -0.27381503444977273
34 -0.26891078314764 -0.5050455673339286 -1.0654191462677505
62 0.4073077799415659 -0.6145372130829477 0.29110105310422546
132 -0.06592626211859054 0.29832057654099553 0.7935626392487293
