LAMMPS data file via write_data, version 2 Aug 2023, timestep = 20000, units = lj

187 atoms
1 atom types

0 50 xlo xhi
0 50 ylo yhi
0 50 zlo zhi

Masses

1 1

Pair Coeffs # morse

1 0.1 1 10

Atoms # full

135 1 1 0 0.9740508925549167 8.491239953732087 7.325025441545496 0 0 0
60 1 1 0 8.422803458338251 1.879090096298245 5.889692612574299 0 0 0
125 1 1 0 9.798237364976877 11.577344901696476 7.3288601684389345 0 0 0
141 1 1 0 17.183222250694502 2.2914570231527067 9.337754861742248 0 1 0
6 1 1 0 16.244623362275323 7.370714326868377 2.160465352438251 0 0 0
22 1 1 0 24.84650672157412 7.033850373426745 6.51339636959082 0 0 0
26 1 1 0 31.92675230321172 2.1412599259259593 9.1891157285986 0 0 0
116 1 1 0 33.10535488874607 10.336218162039815 5.420790626868874 0 0 1
140 1 1 0 49.574326342505756 2.6510777289387484 1.242382075362689 0 1 0
45 1 1 0 42.297108344212035 5.850515242404044 6.420079426050979 -1 0 0
80 1 1 0 3.587210611238231 17.438118720478396 8.588495456692268 0 0 0
36 1 1 0 8.527632629764256 17.129450134979184 0.8467197454739508 0 0 0
74 1 1 0 10.521963256885302 24.197161423169963 6.7061785827107165 0 0 0
105 1 1 0 49.55030633481869 24.783814532094336 3.1834910616828966 0 0 0
186 1 1 0 16.826048721413265 15.862640442429617 5.1982615048652026 0 0 0
77 1 1 0 21.68652841030289 23.698938110196938 4.128006164796864 0 0 0
93 1 1 0 25.239438549723445 15.70235520764832 0.9099158877347129 0 0 0
4 1 1 0 27.49857055564276 15.94698341831681 9.83664652648169 0 0 0
52 1 1 0 30.49778690715946 24.102171534267455 0.5067275244130697 0 0 0
163 1 1 0 28.81825711533693 24.420411690933005 10.635050204120438 0 0 1
136 1 1 0 46.8570756975951 15.476764302651205 3.176277464167289 0 0 1
31 1 1 0 36.74354437733053 17.451520416745677 9.98568840491151 0 0 1
30 1 1 0 45.005828909494454 21.25879207611013 10.887230141834937 0 0 0
9 1 1 0 39.884243873880294 25.199959709937673 4.9308639797488905 0 0 1
104 1 1 0 45.005649010194674 12.590992822946587 12.189592979164042 0 0 0
181 1 1 0 2.74903336354734 25.772999056689304 11.582813550817304 0 0 0
118 1 1 0 4.108356273469049 33.46493987552808 1.9503222561817923 0 0 1
113 1 1 0 8.882574566546491 32.960154462618355 9.20370927853267 0 0 0
94 1 1 0 13.131657734934747 30.580339963887184 0.44204431573174907 0 0 0
120 1 1 0 19.43587404654258 37.19054661495366 2.556244229357062 0 0 1
63 1 1 0 17.414691114713897 30.522564553779336 9.154809387882644 0 0 0
21 1 1 0 34.72350998802119 32.71569132754726 8.318534547976439 0 0 0
57 1 1 0 26.678965202352472 31.508725714358686 4.795812778253807 0 0 0
96 1 1 0 44.74067087072072 31.285998832650154 9.757158765922945 0 0 0
154 1 1 0 8.396900170131456 41.984759751259844 8.203078428289944 0 0 0
13 1 1 0 1.2328067047447067 48.94904135006577 10.300965313813153 0 0 0
99 1 1 0 10.48987228625731 39.06874513176279 0.46988403404637635 0 0 1
143 1 1 0 18.4585604430865 42.95682680412464 9.318943713498312 0 0 0
39 1 1 0 25.667894631939745 47.92344377179525 4.645352681901649 0 -1 1
151 1 1 0 26.42622351569445 39.41050695448325 9.396536246195334 0 0 0
112 1 1 0 32.32977865048469 39.91810458561743 2.150288371730345 0 0 0
179 1 1 0 34.40051584301897 42.432399286554926 10.42361099074279 0 0 0
102 1 1 0 49.16902092709974 39.57969552830493 10.96665175545874 -1 0 0
61 1 1 0 40.68343215704058 38.41616557440216 4.5521369968509315 0 0 1
173 1 1 0 42.13958590028056 49.07856703252648 1.124285351923996 0 0 1
29 1 1 0 49.21958364093214 43.37160840507382 2.3027531912602974 0 0 0
167 1 1 0 42.59521062748228 46.13704889462431 10.081048622761214 0 0 0
17 1 1 0 4.585775846781951 1.36900218104289 18.22194248252458 0 0 0
89 1 1 0 11.965418719675665 6.440551485747201 14.777953509163448 0 0 0
51 1 1 0 3.125499504143311 10.42694927081277 17.477382505334507 0 0 0
46 1 1 0 19.162507547931316 11.244617237030303 12.393395930639048 0 0 0
152 1 1 0 19.618866557931245 3.777417879955184 18.602700890400193 0 0 0
49 1 1 0 15.660957658247506 11.480442018810734 21.414115821977752 0 0 0
123 1 1 0 26.99728374732105 7.259077342059999 15.036486630549131 0 0 0
55 1 1 0 31.44911088675208 4.075443891495077 23.11762502762118 0 0 0
97 1 1 0 35.805651533846344 8.483414320253077 14.226071362136823 0 0 0
169 1 1 0 45.27903260716647 3.8743687199575585 14.279989433283692 0 0 0
8 1 1 0 42.86674873086011 9.013619855093829 21.240978808929032 0 0 0
103 1 1 0 42.44044182247737 49.97967639064887 24.452806275807934 0 -1 0
66 1 1 0 9.626915780230549 16.45835774502488 15.776045748376582 0 0 0
92 1 1 0 49.99728568931272 18.350720816575336 18.085829783886446 0 0 0
88 1 1 0 16.331830615658056 20.614149190136615 22.984205133960643 0 0 0
117 1 1 0 18.365858925501158 20.94641518033694 12.963827879911603 0 0 0
56 1 1 0 23.430353037053752 15.299679339251128 18.356633421739517 0 0 0
18 1 1 0 24.608541775871725 24.07194761699202 22.108308033978588 0 0 0
33 1 1 0 32.11974525857195 18.325178792795104 17.946546720344013 0 0 0
157 1 1 0 35.0549256299952 12.1944551638966 24.45082899930048 0 0 0
148 1 1 0 40.888141742449235 18.18848038159108 18.885185619569295 0 0 0
164 1 1 0 11.383874761147586 25.432409211415838 16.44438111622787 1 0 0
48 1 1 0 6.351230691702578 32.947934404882645 17.997425306718135 0 0 0
11 1 1 0 4.019326164983801 25.264622193876285 22.481196585472624 0 0 0
147 1 1 0 17.842857035455605 31.234757941541517 18.928020831234846 0 0 0
138 1 1 0 14.423597494766561 38.17810035050519 24.156972638376608 0 0 0
84 1 1 0 25.068148608383527 31.793195901807803 14.293659910140052 0 0 0
184 1 1 0 31.564683593291683 28.702426069255104 20.115849494940772 0 0 0
5 1 1 0 31.661727373833404 37.47570043606462 17.441260537666007 0 0 0
54 1 1 0 38.47289390141431 27.06208642955104 13.570532281881913 0 0 0
83 1 1 0 38.900859549711384 32.986733312792424 21.25690896078636 0 0 0
64 1 1 0 46.2367319133673 26.886447898703448 18.48251726692129 -1 0 0
168 1 1 0 47.5487041255565 36.00875791211285 18.944397746326793 -1 0 0
119 1 1 0 39.945139781893644 37.65456108799563 13.967515174215881 0 0 0
23 1 1 0 6.245384528605384 41.59480381749751 19.825263278858095 0 0 0
59 1 1 0 13.137541661084402 47.349913861282054 16.15658507406943 0 0 0
76 1 1 0 13.203173133244768 38.33646484151412 15.126829749627603 0 0 0
182 1 1 0 22.107393455390426 39.88188000896689 17.75811079960654 0 0 0
27 1 1 0 20.40001842211053 46.64009827283602 24.035019249448897 0 -1 0
40 1 1 0 24.448332688453153 48.38504091558938 13.957956684468641 0 0 0
43 1 1 0 37.179048403781735 49.185429807081675 16.700584723151724 0 0 0
150 1 1 0 28.73413107435686 45.285446866345445 22.081444145810764 0 -1 0
170 1 1 0 38.89394326284527 41.95827413921961 21.577398187407763 0 0 0
131 1 1 0 46.74795630312159 45.76791710663571 17.943098290425464 0 0 0
166 1 1 0 8.75460963208979 8.683873774099167 25.092875360904173 0 0 0
69 1 1 0 7.917684074277771 2.7820593168513668 32.54777627827726 0 1 0
100 1 1 0 0.7974918003880045 3.8485973827960027 25.92237996276699 0 0 0
38 1 1 0 13.732990503550385 8.187684697163707 37.432253679947294 0 1 0
41 1 1 0 17.05733865350448 4.9072601485908125 27.485011157108605 0 0 0
175 1 1 0 22.225351804441868 8.975875999516278 34.65911702782935 0 0 0
37 1 1 0 24.749822211447324 9.910071423549136 25.681669965215292 0 0 0
24 1 1 0 26.66614849623739 2.4378774240130916 30.252945889564867 0 0 0
172 1 1 0 30.91155155323374 11.052661182405185 32.24065310834505 0 0 0
90 1 1 0 37.1911825793704 4.898990753178474 31.650198756886354 0 0 0
132 1 1 0 47.41116838008627 7.673724327955535 35.76360377741312 -1 0 0
79 1 1 0 6.212761052662632 13.024593168716034 33.26230720865585 0 0 0
87 1 1 0 7.824612566872623 17.76137954987277 25.553499742892576 0 0 0
50 1 1 0 0.7393653785320867 12.733521322041822 26.318701607369487 0 0 0
176 1 1 0 12.935761135278108 24.375909724407993 32.323951037190106 0 0 0
149 1 1 0 14.450075363018188 14.079124834728947 29.57221061788898 0 0 0
62 1 1 0 21.312368813559324 21.149311149416352 30.978451053969447 0 0 0
155 1 1 0 16.16425259583975 17.880891546455913 37.709441059218626 0 0 0
95 1 1 0 36.31933309520076 23.22317440307536 25.372557698795337 0 0 0
47 1 1 0 29.429007690580356 22.813730795306522 35.43293195911294 0 0 0
130 1 1 0 37.168909127447606 19.663448907296477 34.008097251894576 0 0 0
185 1 1 0 28.88190135437908 18.523725581358747 27.214935483123295 0 0 0
146 1 1 0 48.542399312674526 16.619459780302822 36.14934692341182 -1 0 0
160 1 1 0 43.0719165182908 13.393155960061119 30.01269099078294 0 0 0
111 1 1 0 46.802918946600634 21.4050145412868 26.081297068513074 0 0 0
126 1 1 0 11.245123497721405 29.021690287727413 24.539788627623395 0 0 0
128 1 1 0 4.693030642223158 35.720039371161796 26.418687963041894 0 0 0
115 1 1 0 10.081020594712196 33.21573854417646 32.8399657029538 0 0 0
144 1 1 0 3.936800743501847 25.685054529376064 31.476544938499895 0 0 0
129 1 1 0 1.0010539161263383 37.264058761534244 34.14088191262848 0 0 0
145 1 1 0 19.909274451568276 29.76610313025358 28.654217507810525 0 0 0
1 1 1 0 26.140184237974115 36.78410066909921 24.328851504545195 0 0 0
139 1 1 0 29.744518131762838 29.384057712312657 28.78466330483742 0 0 0
20 1 1 0 25.87696183777421 35.10949925855681 36.18399319764385 0 0 0
106 1 1 0 38.34518751776974 30.162779116500104 30.859327633299362 0 0 0
2 1 1 0 46.675583175785604 30.483704765917413 27.828917858561645 -1 0 0
174 1 1 0 42.42891468729995 35.04490247899748 37.22663115605155 0 0 0
153 1 1 0 44.76517713060078 24.998901993494158 35.19921490400716 0 0 0
34 1 1 0 9.801431772023859 49.05621273628274 24.643211353198232 0 0 0
71 1 1 0 1.3925413503315758 44.51780576607188 28.07694582650547 0 0 0
53 1 1 0 8.896714729928211 42.00037686474856 31.554777075521567 0 0 0
42 1 1 0 17.98375315752637 38.046556449882694 31.965921216763718 0 0 0
7 1 1 0 18.30340294907504 47.78729645683543 32.634662379588 0 -1 0
19 1 1 0 33.64996140719503 38.47907000099542 29.087748358658924 0 0 0
10 1 1 0 25.729165394686564 43.382222928922985 30.809078268893746 0 0 0
67 1 1 0 31.020238747948575 46.838448191278616 37.19625213652333 0 -1 0
183 1 1 0 34.470190405165155 46.64357383970291 29.165796667415748 0 0 0
73 1 1 0 46.167477297439184 48.69299803759444 33.46453576827404 0 -1 0
137 1 1 0 42.88236963717875 39.28822124573318 29.054005424652868 0 0 0
78 1 1 0 39.01001977647716 44.296989517338375 36.22930778962594 0 0 0
28 1 1 0 7.335768070728339 7.8150246720040695 49.45946782866887 0 0 -1
82 1 1 0 5.416821255738483 5.63845840139849 40.643571007880354 0 0 0
122 1 1 0 13.819682984598682 2.680719850315346 44.36229585382544 0 1 0
133 1 1 0 21.295403305839066 1.9550658951924476 40.38389143617936 0 0 0
187 1 1 0 17.892942696190367 11.864462417889147 44.56573456296806 0 0 0
75 1 1 0 24.766474711654382 6.750765925449868 47.468849842005795 0 0 0
159 1 1 0 31.847028435094796 2.338404025353243 49.62531392219649 0 0 -1
165 1 1 0 30.0314434038718 5.295620328094701 39.698505522394484 0 0 0
16 1 1 0 32.24417688046613 11.288570289357311 45.73180699420263 0 0 -1
178 1 1 0 40.93084030297899 8.29763932519434 47.69948163509209 0 0 -1
121 1 1 0 38.86690519776466 2.920154182821821 40.54798339041774 0 1 0
108 1 1 0 49.03055232962885 10.573578900216877 45.414491621489844 0 0 0
3 1 1 0 37.5356331704811 11.092402097652169 38.080519717823165 0 0 0
156 1 1 0 6.564422382210439 21.728624640447045 38.68776543139893 0 0 0
127 1 1 0 8.912672120594774 14.276461433746817 42.165733569216755 0 0 0
44 1 1 0 49.94466161329314 20.284824202892946 44.854292860045035 0 0 0
65 1 1 0 6.8530935940280395 25.782817617450284 46.992008466881906 0 0 0
70 1 1 0 15.303320499407619 21.103438497731396 45.74067900953183 0 0 0
58 1 1 0 23.82167713860498 21.665054893323013 43.993977496404355 0 1 0
15 1 1 0 25.309963494548036 14.514036119509308 40.00636659172956 0 0 0
12 1 1 0 32.93859959439407 19.38471439425817 43.09996939557483 0 0 0
85 1 1 0 39.05205290278711 16.79817108201817 49.870669493512494 0 0 0
171 1 1 0 41.89346776914203 18.48928793358056 41.680146595505484 0 0 -1
72 1 1 0 1.951837364959918 29.275959378816033 39.27730410925862 0 0 0
134 1 1 0 6.899242901522473 37.259406290285966 42.57950954892697 0 0 0
81 1 1 0 21.625215859546138 27.422918314319265 38.303245168680554 0 0 0
35 1 1 0 11.983567228241085 28.168499759592066 40.54514908688387 0 0 0
110 1 1 0 21.887972042977022 30.03479173275135 47.867446364533464 0 0 0
177 1 1 0 16.561110408868657 35.86176387240814 43.226474712419474 0 0 0
98 1 1 0 35.03346892701408 31.01712759889973 49.41418081010985 0 0 0
107 1 1 0 29.038624426852707 29.18653798859574 43.3469104531892 0 0 0
109 1 1 0 37.14662811842501 27.33927818333747 39.6324423317583 0 0 0
32 1 1 0 34.1724847628387 37.10933605322469 39.131363241669845 0 0 0
180 1 1 0 47.13148469714896 35.471522785911404 48.2552123644387 0 0 0
14 1 1 0 43.58317949080253 26.802941535807694 46.217550263906006 0 0 -1
101 1 1 0 3.0087535796088742 45.49686328109349 37.49463210080642 1 0 0
158 1 1 0 6.038431412998109 46.62921245442467 46.90520644262256 1 0 0
162 1 1 0 13.17023053805886 44.50464027550514 39.78827419161195 0 0 0
86 1 1 0 21.774619327047596 42.404961199621646 38.99019875198748 0 0 0
68 1 1 0 17.457329530767527 45.02347496840809 49.63597584549532 0 0 0
124 1 1 0 25.949428133737747 37.87057658442625 46.2133517456512 0 0 -1
114 1 1 0 26.659782702510856 46.370295478774636 45.78748466703338 0 -1 0
91 1 1 0 35.39480281453336 46.20528449961665 45.53239938441301 0 0 0
161 1 1 0 39.407629613479145 38.455260282583986 45.193531351220784 0 0 0
142 1 1 0 47.27295947086373 41.11953700928174 42.16360387683222 0 0 0
25 1 1 0 47.211190868605044 0.2927466405012582 43.147752643041485 0 1 0

Velocities

135 0.22519457631199122 0.0677216381227141 0.4020554482491964
60 0.44315369881688627 0.48179662917580957 -0.22425655462118657
125 0.06873447187977975 -1.1180574938547996 0.8374075479899753
141 -0.31691668438414095 0.25551489745554407 1.5728415317077258
6 0.03303940700470151 -0.8490481283523167 -1.2378751408124282
22 -0.6323260851640101 -0.83046843408767 0.3387804246483923
26 -0.332411131953003 0.32884390217271564 1.0606829716043924
116 -0.04120496525991228 0.6813142513889922 -0.4331807013198939
140 0.5768187944050316 0.9565967021066254 -0.705182128247162
45 0.07289940630328426 -1.130983425144531 -0.9352280156627026
80 -1.0740948196986724 -0.45285306650451623 0.09974931314527041
36 0.5103487832375023 0.11609552219664417 0.20787902956681326
74 -0.2644426019401634 -0.7395890678593561 0.28283821071918963
105 -0.7322126879810477 0.3417371645992054 -0.11349202329127059
186 -0.5978759909039865 0.5497973656040492 -0.8833583775607681
77 0.7417966627988405 -1.1607012427769015 0.8008186354458479
93 0.5381906436199179 0.7418749290995396 0.8365826462272797
4 0.583247205177528 0.9142830202234882 -0.5814432390747301
52 0.40914420942637203 1.7351191576959737 0.19871649717363588
163 -0.6659498221133316 -0.28399534048987324 0.4233556502823103
136 -0.6002594869500354 0.2359390180254555 -0.657854023050523
31 -1.9165154633564148 1.004233936270653 0.06862120857720862
30 -0.47718645743365373 0.24999555947373422 -0.10676010431605217
9 -1.2921064459616138 0.9659234858461265 0.5894489292901355
104 -0.9324931713792429 0.05022804422960557 0.12058533804277552
181 0.08417607962601562 -1.1004225644318288 -0.07849349975761293
118 -1.471159023662954 -0.14604993987868978 -1.315521930832264
113 -0.9306272728268472 -0.026782647238070948 2.0891079830925854
94 -0.39702056641326544 0.030077092991452434 0.15797912954929702
120 0.02420484255064106 -1.0669199556017885 -1.2119157107470186
63 -0.8080185341495691 -0.3277763711491808 0.04201307968261895
21 -0.058021199375617824 0.4879551681704725 1.2302955283288848
57 0.6092526751704791 0.2714511924332711 0.1444078503413322
96 -0.16273908140876875 -0.44547975739944984 -0.6535113236222212
154 -0.21142954578251208 0.06766219206205491 -1.6163859245925465
13 -1.0996784409509583 0.10134384644761964 -0.4282430382078263
99 -0.9581113010151324 0.5617797450050951 0.30754717007663585
143 -0.2912282360234023 -0.15971947739585574 1.0823506274413077
39 -0.9161100177307313 -0.30733475823064926 -0.25510440502014786
151 -0.25313339435670007 -0.2548912437457171 -0.5315354948001788
112 0.40994784636765447 0.9955788515172123 -0.6899204237352076
179 0.8611440345698183 0.022557940604546686 0.17116576366881767
102 -0.8332440913660488 -0.8162320007622693 -0.40199830012134646
61 -0.5514022087871423 0.09235281395819345 0.6900881725953643
173 1.3216309246489366 1.392198751006916 0.30171374834379333
29 0.7545560743555217 0.14956888751643443 -0.20770112777610447
167 -0.07661988977661952 0.013790824578208561 -0.6738391925366424
17 0.5832555796407108 0.04776143728480615 -0.3089512923794185
89 -0.051815547461245795 -0.13120698933411948 0.3230424246741423
51 0.026907529218120386 0.05806201758559648 -0.2695081281913647
46 -0.18131710302899745 0.9989022665550826 -0.698470733466854
152 0.6930971540085967 0.4943418982871932 0.19844911971893053
49 0.5148852818386941 0.9338470053800887 -0.32245547800665847
123 -0.4222731624324755 -1.1551274528144373 -0.9981129869090464
55 -0.4752173950762373 -0.3384344234917609 0.42522111597632795
97 1.3194394794838282 -0.38225616994636336 -0.38450965496637096
169 0.5909408712837941 0.07344407996749933 -0.877908650518089
8 0.10237358057177015 0.40810642606862224 0.7109191493651715
103 -0.6455934325886036 0.2177127966545657 -0.16245435575770487
66 -0.2765678024696724 0.6238931229712513 -0.5031893082948125
92 0.03131933686225445 -0.38903997749079433 0.4814367669989996
88 0.625411506663053 0.49319895444357537 1.0177780204066973
117 -0.159879900703395 1.4795997585558598 0.010508462723749784
56 0.025406969624760967 -2.0685408495331954 0.35234554164914045
18 -0.1657404359167472 -0.8910750007436288 0.32936429321764504
33 -0.012231547421029273 0.40276254060595396 -0.2139289048111218
157 0.4390423145229398 -0.8941255546332789 1.4024278302505604
148 -0.3116880354588189 0.4368274160715096 0.2839222933624253
164 -0.42511223423507905 -1.6295860976585443 0.48805615063451496
48 0.5530590285026772 -0.23309206944197416 -0.509134050630863
11 0.7123961663412274 -0.41909462779681284 -0.8358211242476266
147 -0.3823286645940258 -0.9444687351264677 -0.12988988366374987
138 0.9295452103267545 1.3497159536514038 -0.2809730177715984
84 0.7096392102510388 -0.3960264677153097 0.8441432159356445
184 0.13622377155819526 0.06746125387687642 0.0590119562426996
5 0.35176228870620213 1.1230223022239114 -0.6936809026313853
54 -0.6922276448607539 -0.1609396403872234 -0.09088786325376427
83 0.4898378735136689 0.058295353218045985 -0.6307851302642491
64 -0.0013999077111701724 1.5181611903030927 0.46926099036381974
168 -0.7483024498079822 1.6866284331947587 0.5365681161509941
119 1.1153562475847234 1.077774478105725 0.3922488703312495
23 -0.26971512271870063 -0.7303824770690639 0.9870780170919711
59 0.24860219968290403 0.13147711687471722 -0.8982132583281399
76 1.1578589354390245 0.17484762365518247 -0.055817731451290736
182 0.04856168779775495 0.8461358040574274 0.3740522205385668
27 -0.49782085433075374 -0.051753582003683345 1.0914968380649683
40 -0.08763138908858183 -0.9334729338162991 1.0027976588630458
43 0.453746914756874 0.8445723926863605 -0.4440180289069913
150 1.0451946517568116 0.6692228889468568 -0.7163535699641727
170 0.2999296593765267 -1.0476842916616487 0.0246000717189261
131 -0.010076355195773892 -0.21249629279817814 -0.5870408252881049
166 -0.9465206061540212 0.19489030002690205 -0.21331292079561848
69 -0.08222419819218968 0.07315105151162828 0.19146010229752408
100 0.6273490594628995 0.3377928594003068 0.3152538949430403
38 -0.8148560389646666 -0.30727031878335503 0.8535493960791329
41 -1.7549816053282448 0.5167853354488049 0.735255400714938
175 0.12831577568326283 -0.48364921203635053 1.0419435925459144
37 -0.3544162076571512 -0.5862455603573533 -0.9835582881181038
24 -0.039640491513176564 0.4064064743205778 -0.8246211195746947
172 0.44637066446154 0.31336400212159055 -0.23518506936674116
90 -0.10867342758708513 -0.5951509050383955 0.016521486135333763
132 0.669945328715545 -0.8053754243117605 -0.5688294944825667
79 1.0678302977168135 -0.5419347319663989 0.9725171470155992
87 0.9186590078328558 0.09520300989985662 -0.08367006004412372
50 -0.9383223997482641 0.11004808350935015 -0.8782808368831423
176 0.9116087997526177 0.22633802250465976 0.5108060078781147
149 0.07458432521247792 0.22705721544764043 -0.5602382224028232
62 -0.32188050061901025 0.8380493759287339 0.08500138399811562
155 1.049761989901169 0.08244797225542194 0.47522866203289804
95 -0.3294436064816547 0.27548637930096637 0.308999201605276
47 2.1133432282690725 0.43178048406420405 0.41312694605984596
130 -0.39794815171126036 -0.7425608008454923 -0.37006286104017905
185 1.104592820613651 -0.4368792080804641 0.8747182014980439
146 0.3020355644592627 -1.5386008438087577 -0.7003493098485575
160 0.07292719658883365 -0.9901828687278702 -0.9042971729635715
111 -1.3903713641249649 -1.3139688707886283 0.24392675789517462
126 -0.2753559334454902 0.28521164226586765 -0.7472161598473708
128 -0.7091944025274384 0.3197467925655614 0.612669776026832
115 -0.09859398888066957 -0.9083582247736917 -0.8816763106068554
144 -1.0116128954060357 -0.11192809606772124 -0.6845047108573071
129 1.0847619605756045 0.6723478046956601 -0.2995807619667991
145 0.869246994434758 0.6707209616997578 0.7133714983621966
1 1.0400857888308415 0.12264716623072379 -0.8395880599385168
139 -0.48130989481393144 -1.3242444589816587 -0.11052862112873496
20 0.1310118319809814 0.5806513906851507 1.425738066257076
106 -0.7596788993817359 0.06813987490449167 0.7476403842703135
2 -0.8438545547762437 0.437602899906725 -0.724394340352924
174 1.5546519029228456 -0.009006460848602278 0.13486907114577482
153 0.08095712812057032 -1.2617222969146817 0.45473198556173
34 0.38723411447948475 0.2562197872773549 -1.2494733397252304
71 1.0701019207205813 1.04856256187462 -0.24755210962074398
53 0.3311373543143733 0.9446639698156227 -1.0258486628345274
42 0.25288792065910154 0.10073316950338876 0.004211712624929349
7 -0.2292138839263559 -0.500932799996907 -0.0323070414172099
19 0.23037054380668456 -0.5041833561204742 0.3327033920129076
10 -1.470459876795321 1.0307825982091705 0.8209922234585131
67 0.500875877924626 -1.2476592452735655 1.5849406557268408
183 0.6378164759888905 -0.7233017015405937 -0.3332045422431804
73 0.14609182695281445 0.45872322409099453 0.3593552235961057
137 -0.3926496731424949 -0.6493583473252972 0.4283380642436601
78 -0.20147236297979418 0.21850746794140952 1.464732313334328
28 -0.5470593212629896 -0.9827331848323336 0.3349891650059999
82 0.6307549928956597 -0.7295397709147939 0.7644339410933179
122 -0.4988807596069352 -0.6091119081140965 0.5961031819927384
133 0.7520721739228593 -0.0358423314428096 -0.44282613819157385
187 0.39805290105587887 0.27152437158303305 0.578302253146063
75 0.5071119340026145 -0.5869822446821955 -1.427500933588717
159 0.20711909274529305 -1.3474846643810956 -0.075939808735575
165 -0.04083469357480696 0.029676221729166286 -0.2873766699985014
16 -0.12132742612490693 -0.7761266170784477 -0.12032892561526033
178 -0.652054347102338 0.27083007429854544 -0.4513034037797842
121 0.7212123870222614 -1.094091221013661 0.5875456133099503
108 0.8111188568925691 0.6754160627869394 -0.43890376227243216
3 -1.2015214458152284 0.5249536496406552 -0.5657853111211864
156 -0.30682599046013126 0.0011262876956630603 0.3009379876499119
127 -0.3518776807448945 -0.3570129518936534 0.4326691749753822
44 -1.0161687748833794 -1.272378357625524 -0.8646136550502274
65 -1.1272558314536092 1.4753044358156753 1.2984113125389858
70 0.06827549492295794 0.9993648988506914 0.429515344376119
58 0.161558736310128 -0.4397268049929378 1.2944333681092512
15 0.5343393601700079 0.4956685838369573 -0.25787951782636775
12 -0.2967461238496516 0.5670835035030213 -0.7711777656902666
85 -0.6915693960304828 0.03620698736435032 1.0403957106560426
171 -0.3641086676084212 -1.268266011002173 -0.702839406718003
72 0.46564057465318076 -0.029690840852715093 -0.9646369451231561
134 -0.10468016156623336 -0.020057717600344527 0.7300246322464722
81 0.5960043545896574 -0.8408959264961681 -0.3510541163813334
35 -0.17614810493102503 0.9513572857051731 1.1646151919899328
110 0.030354535676312636 -1.0491634845586808 -0.4385059315562438
177 -0.6191596852554638 -0.17523037778165554 -0.647853212692491
98 0.6367529255927296 -0.6279710871726496 -0.5583762052509269
107 0.4785934102754872 -0.020402162352198844 -0.6820518034913501
109 0.07904989225848398 -0.2650233224036199 -0.19180460369783722
32 0.16130147427627659 0.24063138879938356 -0.31806695220641934
180 1.114372256912798 -1.5403498436506533 -0.674103837968354
14 0.8832149556017336 0.8101261945475042 -0.15920712775752785
101 0.6410095039319383 1.6898431864133867 -0.4688182087424725
158 0.38605095826081437 2.920944727068041 -0.9126868646279649
162 -0.24369765025967863 -0.4049450789515883 -0.772817387992129
86 -0.1923201031327905 -0.9391582289808356 -0.5308334923872657
68 -0.3189499052149889 0.7420130701236842 0.6706035477235893
124 0.601517076680056 -0.28933908164004457 -0.9276999385182614
114 -0.6229784548039885 -1.815454072483446 -0.06744038744622219
91 -0.9450760884650209 0.7507207797934347 0.4450151577874961
161 0.06674723850346158 -0.013608496499427329 0.19214742024649062
142 -0.5677709271026422 1.1551679690848529 -0.35187098755449814
25 -0.5368904665066083 1.3080794731003937 0.6329817672123293
