ITEM: TIMESTEP
0
ITEM: NUMBER OF ATOMS
200
ITEM: BOX BOUNDS pp pp pp
9.7017222714120251e+01 1.0298277728587975e+02
9.7017222714120251e+01 1.0298277728587975e+02
9.7017222714120251e+01 1.0298277728587975e+02
ITEM: ATOMS id mol type x y z
1 1 1 100.616 102.018 97.6255
2 1 1 99.5473 101.522 97.5031
3 2 1 101.853 101.553 98.8827
4 2 1 97.0319 101.785 98.6964
5 3 1 101.767 99.1472 97.1866
6 3 1 101.404 99.4826 98.2643
7 4 1 99.9787 98.7942 101.489
8 4 1 99.6554 97.8849 100.794
9 5 1 102.335 97.81 100.689
10 5 1 101.482 98.6209 100.471
11 6 1 97.4917 98.4992 99.9719
12 6 1 97.6826 98.3428 98.8473
13 7 1 97.8216 99.8872 102.306
14 7 1 102.675 99.6465 102.71
15 8 1 102.368 99.8056 98.9862
16 8 1 101.5 100.483 98.5851
17 9 1 101.939 99.5306 100.913
18 9 1 102.646 98.7007 101.387
19 10 1 97.1345 99.1754 98.3961
20 10 1 97.2861 99.433 99.4863
21 11 1 101.307 101.328 98.0011
22 11 1 102.418 100.892 98.2288
23 12 1 99.5849 98.2866 99.8019
24 12 1 100.348 98.8623 100.49
25 13 1 100.482 97.1685 97.9817
26 13 1 101.522 102.535 98.0965
27 14 1 99.198 97.5179 99.2092
28 14 1 99.4282 102.478 99.8478
29 15 1 99.0425 102.551 98.797
30 15 1 98.0847 97.3295 98.9806
31 16 1 100.442 101.999 99.7805
32 16 1 100.89 101.115 99.1397
33 17 1 100.807 101.203 101.382
34 17 1 99.9386 101.726 100.788
35 18 1 99.1325 102.821 100.917
36 18 1 98.553 97.1227 99.9548
37 19 1 99.3709 97.3775 98.1293
38 19 1 99.0366 97.3552 102.954
39 20 1 101.912 97.8641 99.6874
40 20 1 101.17 97.3001 98.8781
41 21 1 101.663 100.545 99.6818
42 21 1 100.643 101.039 100.178
43 22 1 101.591 99.3194 99.6315
44 22 1 102.511 98.6649 99.1959
45 23 1 98.8366 100.175 101.985
46 23 1 100.018 99.8013 101.987
47 24 1 100.965 102.081 100.756
48 24 1 101.382 102.279 101.826
49 25 1 97.9266 101.136 98.8697
50 25 1 99.0048 100.63 98.9939
51 26 1 99.3054 101.999 101.614
52 26 1 98.8329 101.805 100.525
53 27 1 101.036 99.0158 101.361
54 27 1 100.985 99.7151 100.418
55 28 1 98.059 102.165 98.4742
56 28 1 97.5446 101.282 97.8378
57 29 1 102.868 101.908 100.746
58 29 1 97.4784 101.476 99.7821
59 30 1 99.1116 99.2988 99.4868
60 30 1 100.268 98.9962 99.4209
61 31 1 99.9443 99.806 100.108
62 31 1 99.3891 99.89 101.139
63 32 1 98.3751 100.547 98.1217
64 32 1 98.1116 100.091 99.2311
65 33 1 100.227 97.5657 102.821
66 33 1 99.7608 102.602 97.3289
67 34 1 97.3459 99.338 100.663
68 34 1 102.479 99.9299 100.089
69 35 1 102.889 100.609 102.171
70 35 1 102.894 100.591 97.3473
71 36 1 98.2912 99.1874 98.767
72 36 1 98.6079 98.0783 98.4243
73 37 1 102.104 101.534 102.257
74 37 1 97.1964 101.672 101.745
75 38 1 99.8163 97.8477 101.859
76 38 1 100.876 98.3683 102.213
77 39 1 97.8644 102.338 100.449
78 39 1 97.4374 102.503 99.3709
79 40 1 101.709 97.1861 101.299
80 40 1 101.053 97.1231 100.356
81 41 1 101.926 97.3584 102.389
82 41 1 102.034 98.0711 97.3704
83 42 1 100.503 98.9416 98.4051
84 42 1 100.501 100.169 98.2881
85 43 1 97.6175 99.8004 97.4274
86 43 1 98.6943 100.331 97.0992
87 44 1 102.135 98.7685 98.1638
88 44 1 101.324 98.4748 98.9928
89 45 1 98.2454 99.909 101.156
90 45 1 97.2606 100.572 101.119
91 46 1 99.8673 101.695 102.495
92 46 1 100.464 100.971 97.3249
93 47 1 102.955 102.948 100.911
94 47 1 97.4217 98.0916 100.949
95 48 1 102.682 97.6251 101.658
96 48 1 102.177 98.4448 102.384
97 49 1 102.484 101.904 99.684
98 49 1 101.528 102.555 99.5755
99 50 1 98.8708 100.066 100.244
100 50 1 98.8658 100.911 101.106
101 51 1 100.064 97.3105 99.9541
102 51 1 100.302 97.9466 98.929
103 52 1 98.7334 99.5816 97.8669
104 52 1 99.3321 99.5552 102.792
105 53 1 97.6178 102.25 97.4759
106 53 1 98.0915 97.3023 97.9137
107 54 1 100.325 100.368 101.033
108 54 1 100.595 100.628 102.249
109 55 1 97.971 101.949 102.435
110 55 1 97.8088 100.837 102.779
111 56 1 102.409 97.1037 97.6685
112 56 1 102.311 102.582 98.8128
113 57 1 97.9998 102.978 102.766
114 57 1 102.968 97.6615 102.722
115 58 1 98.3834 98.1846 100.481
116 58 1 98.2218 99.2776 99.9909
117 59 1 98.8491 98.2204 102.4
118 59 1 98.6882 97.1226 101.939
119 60 1 98.2955 99.1012 102.764
120 60 1 98.9972 98.4009 97.4674
121 61 1 97.5718 100.324 100.12
122 61 1 102.735 100.791 99.3385
123 62 1 100.396 102.099 101.733
124 62 1 100.843 97.2488 101.92
125 63 1 100.745 98.885 97.3639
126 63 1 99.6661 99.1582 97.7621
127 64 1 99.5494 101.588 99.289
128 64 1 100.206 101.203 98.3444
129 65 1 99.0556 99.1289 101.831
130 65 1 98.8253 98.0301 101.369
131 66 1 97.0282 97.5938 99.0604
132 66 1 102.526 102.943 99.8857
133 67 1 101.537 101.604 100.013
134 67 1 101.444 100.627 100.718
135 68 1 102.412 102.427 101.715
136 68 1 101.967 102.457 100.586
137 69 1 97.2666 98.7864 102.279
138 69 1 97.9494 98.0424 102.982
139 70 1 101.692 102.205 97.079
140 70 1 100.614 102.487 102.652
141 71 1 97.8685 101.351 100.762
142 71 1 98.4603 100.967 99.8535
143 72 1 100.014 98.1342 97.745
144 72 1 99.4564 98.5916 98.7312
145 73 1 100.323 99.8587 97.2719
146 73 1 99.6638 100.625 102.722
147 74 1 101.968 101.11 97.2648
148 74 1 102.98 101.552 102.823
149 75 1 98.7815 102.429 97.7837
150 75 1 98.9881 102.275 102.6
151 76 1 98.924 101.463 98.3918
152 76 1 98.4614 101.499 97.3237
153 77 1 97.1089 97.964 97.9651
154 77 1 97.2538 102.792 98.3167
155 78 1 102.982 99.6556 101.647
156 78 1 102.187 100.466 101.401
157 79 1 101.694 98.233 101.492
158 79 1 101.962 99.3592 101.949
159 80 1 98.2665 102.085 101.453
160 80 1 98.1056 97.2351 101.018
161 81 2 98.5445 98.2825 99.4682
162 82 2 101.053 101.469 102.548
163 83 2 102.484 98.8598 100.222
164 84 2 100.174 102.932 101.115
165 85 2 100.728 97.8943 101.093
166 86 2 100.085 102.819 99.0043
167 87 2 100.747 98.0616 99.9367
168 88 2 97.8802 97.8392 101.939
169 89 2 101.153 100.063 101.576
170 90 2 98.8637 101.216 102.243
171 91 2 97.5421 97.4529 99.9874
172 92 2 99.6824 99.751 98.7198
173 93 2 99.75 100.903 101.677
174 94 2 102.417 99.8205 97.8317
175 95 2 100.776 99.8975 99.2439
176 96 2 102.939 98.786 97.3022
177 97 2 101.325 100.276 97.5132
178 98 2 97.977 98.8357 97.8241
179 99 2 99.1383 98.9732 100.708
180 100 2 98.3811 101.99 99.5733
181 101 2 101.815 101.528 101.164
182 102 2 97.3132 100.256 98.3715
183 103 2 102.506 100.961 100.402
184 104 2 99.5603 100.403 97.8449
185 105 2 102.784 102.592 102.739
186 106 2 99.5735 100.907 100.238
187 107 2 102.051 97.7303 98.4675
188 108 2 99.9924 100.591 99.3122
189 109 2 100.8 102.082 98.7858
190 110 2 99.9337 98.5798 102.7
191 111 2 98.0398 98.9374 101.574
192 112 2 99.855 102.163 98.2782
193 113 2 101.137 98.0527 98.0614
194 114 2 99.7656 102.822 102.153
195 115 2 102.513 101.995 97.8063
196 116 2 101.28 97.247 97.3075
197 117 2 98.0075 100.915 101.748
198 118 2 97.4119 102.793 101.887
199 119 2 100.979 99.4877 102.44
200 120 2 101.766 100.414 102.429
ITEM: TIMESTEP
1000
ITEM: NUMBER OF ATOMS
200
ITEM: BOX BOUNDS pp pp pp
9.6987245304022295e+01 1.0301275469597770e+02
9.7017222714120251e+01 1.0298277728587975e+02
9.7017222714120251e+01 1.0298277728587975e+02
ITEM: ATOMS id mol type x y z
1 1 1 100.581 101.967 97.6079
2 1 1 99.4632 101.495 97.4921
3 2 1 101.838 101.56 98.9797
4 2 1 96.9828 101.72 98.7744
5 3 1 101.811 99.1869 97.2426
6 3 1 101.459 99.4748 98.3706
7 4 1 99.9605 98.7601 101.476
8 4 1 99.5958 97.8845 100.759
9 5 1 102.332 97.7852 100.632
10 5 1 101.467 98.5517 100.426
11 6 1 97.4521 98.5003 99.9453
12 6 1 97.6735 98.3856 98.809
13 7 1 97.8277 99.8219 102.277
14 7 1 102.702 99.745 102.723
15 8 1 102.401 99.7899 98.9932
16 8 1 101.56 100.507 98.6341
17 9 1 101.91 99.4666 100.878
18 9 1 102.663 98.7027 101.38
19 10 1 97.2226 99.2226 98.372
20 10 1 97.2129 99.4948 99.5414
21 11 1 101.301 101.333 98.0215
22 11 1 102.428 100.953 98.2823
23 12 1 99.5907 98.3237 99.7871
24 12 1 100.355 98.843 100.509
25 13 1 100.458 97.1093 97.9669
26 13 1 101.501 102.484 98.0619
27 14 1 99.2092 97.5367 99.1959
28 14 1 99.4256 102.462 99.8117
29 15 1 98.9454 102.537 98.8085
30 15 1 98.0285 97.3052 98.9648
31 16 1 100.48 102 99.8409
32 16 1 100.862 101.107 99.1277
33 17 1 100.899 101.179 101.427
34 17 1 100.036 101.703 100.774
35 18 1 99.037 102.885 100.958
36 18 1 98.5339 97.112 99.9019
37 19 1 99.3802 97.2625 98.1526
38 19 1 99.0288 97.3242 102.987
39 20 1 101.958 97.887 99.6218
40 20 1 101.23 97.3334 98.899
41 21 1 101.705 100.619 99.6754
42 21 1 100.673 100.908 100.186
43 22 1 101.668 99.3328 99.6467
44 22 1 102.589 98.7111 99.1642
45 23 1 98.8944 100.13 102.054
46 23 1 100.024 99.6813 102.022
47 24 1 101 102.173 100.87
48 24 1 101.422 102.387 101.93
49 25 1 97.9159 101.122 98.9291
50 25 1 99.0079 100.628 98.9597
51 26 1 99.3062 102.009 101.582
52 26 1 98.9207 101.812 100.487
53 27 1 100.985 99.0239 101.397
54 27 1 100.982 99.7423 100.421
55 28 1 97.9847 102.193 98.5162
56 28 1 97.5202 101.296 97.9211
57 29 1 102.937 101.988 100.718
58 29 1 97.4538 101.492 99.8269
59 30 1 99.1394 99.3231 99.5103
60 30 1 100.306 99.0289 99.4243
61 31 1 99.9218 99.7547 100.151
62 31 1 99.3511 99.9598 101.148
63 32 1 98.336 100.497 98.1313
64 32 1 98.1146 100.093 99.2378
65 33 1 100.064 97.6236 102.838
66 33 1 99.7406 102.532 97.2964
67 34 1 97.3376 99.381 100.694
68 34 1 102.482 99.9618 100.124
69 35 1 102.924 100.636 102.174
70 35 1 102.904 100.637 97.388
71 36 1 98.3735 99.1933 98.7218
72 36 1 98.6083 98.0373 98.3868
73 37 1 102.108 101.515 102.21
74 37 1 97.1447 101.635 101.693
75 38 1 99.8204 97.8145 101.824
76 38 1 100.844 98.2932 102.226
77 39 1 97.891 102.371 100.426
78 39 1 97.3749 102.495 99.3568
79 40 1 101.696 97.2679 101.311
80 40 1 101.081 97.1427 100.304
81 41 1 101.946 97.3082 102.404
82 41 1 102.113 98.1072 97.3694
83 42 1 100.541 98.9416 98.3556
84 42 1 100.595 100.163 98.3011
85 43 1 97.6206 99.797 97.4256
86 43 1 98.6165 100.36 97.1139
87 44 1 102.232 98.8077 98.1964
88 44 1 101.361 98.5535 98.9293
89 45 1 98.2476 99.8518 101.186
90 45 1 97.2113 100.494 101.107
91 46 1 99.8993 101.677 102.549
92 46 1 100.512 100.949 97.351
93 47 1 103.014 102.989 100.895
94 47 1 97.3634 98.0826 100.908
95 48 1 102.719 97.6567 101.705
96 48 1 102.251 98.4968 102.386
97 49 1 102.512 101.941 99.6791
98 49 1 101.525 102.54 99.5595
99 50 1 98.838 100.04 100.263
100 50 1 98.8168 100.937 101.112
101 51 1 100.043 97.3403 99.9503
102 51 1 100.283 97.9405 98.9036
103 52 1 98.7002 99.5244 97.812
104 52 1 99.3226 99.5997 102.865
105 53 1 97.5924 102.223 97.5032
106 53 1 98.0742 97.2959 97.8302
107 54 1 100.306 100.339 101.082
108 54 1 100.573 100.566 102.266
109 55 1 97.9146 101.943 102.399
110 55 1 97.7167 100.81 102.794
111 56 1 102.324 97.0858 97.675
112 56 1 102.3 102.599 98.7934
113 57 1 98.0078 102.959 102.77
114 57 1 103.031 97.6801 102.694
115 58 1 98.3771 98.1391 100.428
116 58 1 98.188 99.2315 99.9709
117 59 1 98.8899 98.1326 102.327
118 59 1 98.5807 97.0708 101.932
119 60 1 98.4032 99.0451 102.669
120 60 1 98.9792 98.3546 97.4582
121 61 1 97.5178 100.408 100.083
122 61 1 102.751 100.868 99.346
123 62 1 100.424 102.09 101.735
124 62 1 100.774 97.2841 101.891
125 63 1 100.74 98.7788 97.2505
126 63 1 99.687 99.1091 97.7885
127 64 1 99.4871 101.56 99.2749
128 64 1 100.072 101.14 98.3004
129 65 1 98.9708 99.0854 101.75
130 65 1 98.7668 97.9744 101.345
131 66 1 96.9896 97.6033 99.0405
132 66 1 102.582 102.972 99.916
133 67 1 101.479 101.614 100.079
134 67 1 101.529 100.596 100.709
135 68 1 102.447 102.464 101.724
136 68 1 102.003 102.472 100.604
137 69 1 97.3014 98.8143 102.321
138 69 1 97.9675 98.0311 102.962
139 70 1 101.752 102.27 97.038
140 70 1 100.642 102.525 102.674
141 71 1 97.7951 101.355 100.802
142 71 1 98.4668 100.965 99.8793
143 72 1 100.016 98.0897 97.7931
144 72 1 99.4483 98.5848 98.757
145 73 1 100.353 99.8158 97.3006
146 73 1 99.6506 100.634 102.752
147 74 1 101.983 101.243 97.2337
148 74 1 103.005 101.563 102.804
149 75 1 98.736 102.393 97.7586
150 75 1 98.9465 102.265 102.583
151 76 1 98.83 101.527 98.4402
152 76 1 98.4077 101.473 97.307
153 77 1 97.0886 98.0225 97.9684
154 77 1 97.1838 102.857 98.3154
155 78 1 103.016 99.6247 101.677
156 78 1 102.211 100.459 101.451
157 79 1 101.724 98.321 101.515
158 79 1 102.006 99.4154 101.942
159 80 1 98.2503 102.076 101.401
160 80 1 98.0225 97.2697 101.029
161 81 2 98.5215 98.271 99.4263
162 82 2 101.043 101.441 102.5
163 83 2 102.521 98.8369 100.226
164 84 2 100.149 102.93 101.085
165 85 2 100.724 97.9294 101.075
166 86 2 100.144 102.835 99.0103
167 87 2 100.79 98.0436 99.8366
168 88 2 97.8303 97.859 101.928
169 89 2 101.172 100.025 101.583
170 90 2 98.7906 101.189 102.236
171 91 2 97.5321 97.4825 99.9468
172 92 2 99.7321 99.7129 98.6792
173 93 2 99.7756 100.949 101.689
174 94 2 102.494 99.7886 97.825
175 95 2 100.828 99.9206 99.3246
176 96 2 102.961 98.831 97.3027
177 97 2 101.462 100.22 97.5546
178 98 2 97.959 98.8316 97.7586
179 99 2 99.1459 98.9753 100.656
180 100 2 98.3682 101.939 99.5594
181 101 2 101.889 101.585 101.176
182 102 2 97.2097 100.276 98.4965
183 103 2 102.58 101.002 100.474
184 104 2 99.5406 100.344 97.8488
185 105 2 102.84 102.605 102.774
186 106 2 99.615 100.838 100.274
187 107 2 102.08 97.7822 98.4886
188 108 2 99.9751 100.569 99.287
189 109 2 100.82 102.109 98.7704
190 110 2 99.9046 98.6378 102.641
191 111 2 97.9649 98.8857 101.52
192 112 2 99.8103 102.146 98.2998
193 113 2 101.144 98.0305 98.0601
194 114 2 99.7358 102.805 102.107
195 115 2 102.52 102.007 97.8192
196 116 2 101.239 97.3694 97.2417
197 117 2 97.951 100.871 101.748
198 118 2 97.4174 102.828 101.877
199 119 2 101.104 99.4676 102.478
200 120 2 101.755 100.419 102.485
ITEM: TIMESTEP
2000
ITEM: NUMBER OF ATOMS
200
ITEM: BOX BOUNDS pp pp pp
9.6956966615944111e+01 1.0304303338405589e+02
9.7017222714120251e+01 1.0298277728587975e+02
9.7017222714120251e+01 1.0298277728587975e+02
ITEM: ATOMS id mol type x y z
1 1 1 100.572 101.966 97.5684
2 1 1 99.4512 101.48 97.4911
3 2 1 101.889 101.611 98.8975
4 2 1 96.9727 101.77 98.7645
5 3 1 101.811 99.2023 97.1434
6 3 1 101.393 99.4342 98.2735
7 4 1 99.9702 98.8364 101.494
8 4 1 99.7662 97.9234 100.752
9 5 1 102.391 97.7686 100.624
10 5 1 101.475 98.5765 100.395
11 6 1 97.412 98.4824 99.9209
12 6 1 97.6576 98.3114 98.8119
13 7 1 97.8124 99.8829 102.431
14 7 1 102.705 99.8122 102.685
15 8 1 102.425 99.7847 98.9783
16 8 1 101.548 100.473 98.5267
17 9 1 101.907 99.4806 100.839
18 9 1 102.715 98.7482 101.396
19 10 1 97.1383 99.1733 98.4437
20 10 1 97.1907 99.4907 99.5826
21 11 1 101.388 101.362 98.0033
22 11 1 102.448 100.876 98.287
23 12 1 99.5517 98.3396 99.7834
24 12 1 100.378 98.8232 100.505
25 13 1 100.502 97.0441 97.992
26 13 1 101.539 102.467 98.2204
27 14 1 99.1934 97.5251 99.2464
28 14 1 99.4177 102.434 99.8008
29 15 1 98.9777 102.5 98.8266
30 15 1 98.0541 97.2474 98.9334
31 16 1 100.496 102.042 99.8697
32 16 1 100.946 101.116 99.2048
33 17 1 100.897 101.179 101.393
34 17 1 99.9796 101.711 100.771
35 18 1 99.1152 102.912 100.897
36 18 1 98.5176 97.1128 99.9293
37 19 1 99.4463 97.322 98.1791
38 19 1 98.9559 97.3559 103
39 20 1 101.917 97.8778 99.608
40 20 1 101.191 97.2558 98.9125
41 21 1 101.757 100.597 99.6117
42 21 1 100.684 100.893 100.211
43 22 1 101.695 99.3821 99.6419
44 22 1 102.578 98.6546 99.2191
45 23 1 98.8627 100.203 102.014
46 23 1 100.039 99.7393 102.014
47 24 1 100.992 102.118 100.832
48 24 1 101.425 102.334 101.907
49 25 1 97.9331 101.132 98.9309
50 25 1 98.9752 100.572 99.0852
51 26 1 99.2971 102.051 101.577
52 26 1 98.8404 101.845 100.496
53 27 1 101.005 99.0306 101.311
54 27 1 101.005 99.7318 100.368
55 28 1 97.9637 102.115 98.4437
56 28 1 97.5508 101.211 97.9033
57 29 1 102.926 101.925 100.698
58 29 1 97.4562 101.468 99.8447
59 30 1 99.1033 99.2671 99.4746
60 30 1 100.266 99.0219 99.4157
61 31 1 99.9641 99.7938 100.166
62 31 1 99.353 99.9111 101.168
63 32 1 98.4206 100.506 98.1742
64 32 1 98.084 100.121 99.3077
65 33 1 100.205 97.6083 102.839
66 33 1 99.7083 102.598 97.3343
67 34 1 97.3013 99.3953 100.735
68 34 1 102.511 99.9538 100.12
69 35 1 102.919 100.703 102.157
70 35 1 102.956 100.607 97.3761
71 36 1 98.2546 99.2093 98.7381
72 36 1 98.5602 98.0864 98.3482
73 37 1 102.185 101.515 102.233
74 37 1 97.1153 101.647 101.678
75 38 1 99.8674 97.8784 101.832
76 38 1 100.913 98.321 102.209
77 39 1 97.8403 102.355 100.475
78 39 1 97.3923 102.498 99.4152
79 40 1 101.711 97.2262 101.289
80 40 1 101.052 97.1706 100.333
81 41 1 101.968 97.3756 102.398
82 41 1 102.182 98.0667 97.4007
83 42 1 100.501 98.9307 98.4091
84 42 1 100.542 100.162 98.2835
85 43 1 97.5926 99.8419 97.5543
86 43 1 98.6243 100.426 97.1316
87 44 1 102.265 98.7895 98.2338
88 44 1 101.388 98.5806 98.9849
89 45 1 98.2218 99.862 101.13
90 45 1 97.1522 100.531 101.157
91 46 1 99.8331 101.655 102.52
92 46 1 100.447 100.934 97.3455
93 47 1 103.034 102.911 100.875
94 47 1 97.2939 98.0998 100.896
95 48 1 102.733 97.6272 101.651
96 48 1 102.288 98.4784 102.384
97 49 1 102.545 101.925 99.719
98 49 1 101.511 102.497 99.5548
99 50 1 98.8645 100.046 100.163
100 50 1 98.7593 100.868 101.036
101 51 1 100.039 97.289 99.9387
102 51 1 100.259 97.8798 98.9045
103 52 1 98.6441 99.5202 97.7868
104 52 1 99.3098 99.5583 102.78
105 53 1 97.5213 102.255 97.4705
106 53 1 98.0082 97.3226 97.8487
107 54 1 100.309 100.373 101.035
108 54 1 100.587 100.623 102.205
109 55 1 97.8777 101.977 102.393
110 55 1 97.7337 100.902 102.805
111 56 1 102.375 97.0697 97.6945
112 56 1 102.365 102.663 98.8783
113 57 1 97.989 102.955 102.755
114 57 1 103.146 97.7372 102.694
115 58 1 98.335 98.1665 100.454
116 58 1 98.1771 99.2703 100.009
117 59 1 98.9713 98.1666 102.35
118 59 1 98.6477 97.1178 101.886
119 60 1 98.3342 99.0081 102.672
120 60 1 99.0424 98.4062 97.4326
121 61 1 97.5062 100.407 100.149
122 61 1 102.755 100.797 99.3559
123 62 1 100.393 102.082 101.745
124 62 1 100.851 97.2656 101.98
125 63 1 100.808 98.8865 97.3735
126 63 1 99.7006 99.1502 97.7709
127 64 1 99.5278 101.532 99.2971
128 64 1 100.113 101.154 98.3195
129 65 1 99.0255 99.1155 101.808
130 65 1 98.8591 97.9994 101.303
131 66 1 96.977 97.5824 99.0485
132 66 1 102.546 102.981 99.8975
133 67 1 101.549 101.567 100.052
134 67 1 101.53 100.588 100.705
135 68 1 102.481 102.48 101.685
136 68 1 101.969 102.445 100.586
137 69 1 97.3196 98.7876 102.334
138 69 1 98.0635 97.9931 102.951
139 70 1 101.782 102.263 97.0726
140 70 1 100.634 102.51 102.695
141 71 1 97.7569 101.359 100.847
142 71 1 98.4249 101.005 99.9537
143 72 1 100.019 98.1436 97.7645
144 72 1 99.4356 98.5539 98.7263
145 73 1 100.294 99.8382 97.2716
146 73 1 99.6119 100.619 102.721
147 74 1 102.012 101.108 97.2263
148 74 1 103.052 101.606 102.864
149 75 1 98.7199 102.453 97.8001
150 75 1 98.896 102.338 102.612
151 76 1 98.8283 101.475 98.4426
152 76 1 98.4104 101.556 97.3058
153 77 1 97.0595 97.9759 97.9558
154 77 1 97.1852 102.811 98.3348
155 78 1 103.139 99.6459 101.729
156 78 1 102.237 100.344 101.449
157 79 1 101.778 98.3087 101.46
158 79 1 101.998 99.3998 101.926
159 80 1 98.263 102.126 101.397
160 80 1 98.0058 97.2851 101.009
161 81 2 98.4766 98.2684 99.4393
162 82 2 101.041 101.467 102.577
163 83 2 102.532 98.8928 100.239
164 84 2 100.18 102.918 101.088
165 85 2 100.741 97.9318 101.128
166 86 2 100.091 102.812 98.9924
167 87 2 100.752 98.0613 99.8507
168 88 2 97.8304 97.8516 101.874
169 89 2 101.184 100.028 101.556
170 90 2 98.8001 101.273 102.247
171 91 2 97.4924 97.4245 99.9587
172 92 2 99.6728 99.7183 98.6589
173 93 2 99.697 100.96 101.686
174 94 2 102.495 99.7642 97.8024
175 95 2 100.842 99.8837 99.2899
176 96 2 102.932 98.912 97.3311
177 97 2 101.305 100.195 97.4954
178 98 2 97.885 98.8335 97.7353
179 99 2 99.1872 98.9815 100.621
180 100 2 98.3121 101.98 99.5723
181 101 2 101.939 101.508 101.185
182 102 2 97.238 100.241 98.5087
183 103 2 102.56 100.962 100.422
184 104 2 99.5271 100.322 97.7777
185 105 2 102.867 102.641 102.731
186 106 2 99.5657 100.887 100.247
187 107 2 102.069 97.7887 98.5164
188 108 2 99.9928 100.546 99.3028
189 109 2 100.753 102.047 98.739
190 110 2 100.002 98.6272 102.682
191 111 2 98.0028 98.8849 101.486
192 112 2 99.7779 102.142 98.259
193 113 2 101.11 97.998 98.0679
194 114 2 99.7604 102.845 102.165
195 115 2 102.558 101.975 97.8723
196 116 2 101.282 97.2972 97.2713
197 117 2 97.9776 100.848 101.768
198 118 2 97.4 102.834 101.886
199 119 2 101.035 99.482 102.439
200 120 2 101.72 100.43 102.403
ITEM: TIMESTEP
3000
ITEM: NUMBER OF ATOMS
200
ITEM: BOX BOUNDS pp pp pp
9.6926383621991647e+01 1.0307361637800835e+02
9.7017222714120251e+01 1.0298277728587975e+02
9.7017222714120251e+01 1.0298277728587975e+02
ITEM: ATOMS id mol type x y z
1 1 1 100.606 101.911 97.6164
2 1 1 99.4841 101.464 97.5435
3 2 1 101.909 101.576 98.9744
4 2 1 96.9452 101.715 98.7518
5 3 1 101.853 99.1237 97.1837
6 3 1 101.392 99.4657 98.2648
7 4 1 99.9348 98.7896 101.519
8 4 1 99.7067 97.8983 100.788
9 5 1 102.375 97.7765 100.634
10 5 1 101.497 98.595 100.389
11 6 1 97.3863 98.504 99.877
12 6 1 97.6449 98.3018 98.7913
13 7 1 97.7619 99.8989 102.438
14 7 1 102.724 99.7413 102.687
15 8 1 102.473 99.7589 98.984
16 8 1 101.599 100.429 98.6136
17 9 1 101.969 99.4853 100.847
18 9 1 102.765 98.7639 101.397
19 10 1 97.0647 99.1362 98.4432
20 10 1 97.2071 99.5105 99.5019
21 11 1 101.353 101.291 98.0709
22 11 1 102.506 100.905 98.2766
23 12 1 99.4687 98.3181 99.8332
24 12 1 100.338 98.8587 100.502
25 13 1 100.489 97.1353 97.9074
26 13 1 101.5 102.486 98.0149
27 14 1 99.1514 97.5088 99.2267
28 14 1 99.3734 102.449 99.8528
29 15 1 99.0009 102.534 98.854
30 15 1 98.0101 97.3231 98.9345
31 16 1 100.513 101.975 99.8198
32 16 1 100.939 101.08 99.1164
33 17 1 100.927 101.191 101.431
34 17 1 100.057 101.712 100.801
35 18 1 99.1669 102.842 100.929
36 18 1 98.5359 97.179 99.9908
37 19 1 99.4024 97.3821 98.1859
38 19 1 99.0547 97.3494 103.014
39 20 1 101.826 97.7912 99.6635
40 20 1 101.179 97.2592 98.8319
41 21 1 101.729 100.506 99.7221
42 21 1 100.671 100.892 100.169
43 22 1 101.72 99.3358 99.6479
44 22 1 102.572 98.6561 99.2023
45 23 1 98.8133 100.191 102.006
46 23 1 99.9872 99.751 101.951
47 24 1 101.047 102.091 100.831
48 24 1 101.446 102.323 101.913
49 25 1 97.8713 101.137 98.8787
50 25 1 98.9851 100.623 98.9652
51 26 1 99.3485 102 101.617
52 26 1 98.8155 101.836 100.55
53 27 1 101.007 99.0266 101.346
54 27 1 101.001 99.7617 100.404
55 28 1 97.932 102.207 98.4733
56 28 1 97.4954 101.239 97.8984
57 29 1 102.996 101.916 100.698
58 29 1 97.4176 101.405 99.804
59 30 1 99.0651 99.3239 99.4517
60 30 1 100.19 99.0169 99.4295
61 31 1 99.9221 99.8045 100.13
62 31 1 99.3475 99.9024 101.14
63 32 1 98.2986 100.478 98.1384
64 32 1 98.0838 100.137 99.2855
65 33 1 100.259 97.5621 102.826
66 33 1 99.7366 102.507 97.2908
67 34 1 97.32 99.3224 100.675
68 34 1 102.596 99.9811 100.095
69 35 1 102.978 100.744 102.164
70 35 1 102.969 100.619 97.3484
71 36 1 98.1919 99.2232 98.7341
72 36 1 98.5848 98.1181 98.3433
73 37 1 102.208 101.565 102.235
74 37 1 97.1328 101.676 101.703
75 38 1 99.9358 97.8267 101.851
76 38 1 100.954 98.3365 102.244
77 39 1 97.829 102.337 100.444
78 39 1 97.2724 102.513 99.4431
79 40 1 101.672 97.2298 101.325
80 40 1 101.115 97.2075 100.291
81 41 1 102.003 97.3909 102.383
82 41 1 102.212 98.1111 97.3946
83 42 1 100.485 98.9248 98.4192
84 42 1 100.508 100.139 98.2063
85 43 1 97.5692 99.8323 97.5536
86 43 1 98.5894 100.36 97.1379
87 44 1 102.226 98.7953 98.2126
88 44 1 101.356 98.5881 98.9742
89 45 1 98.1673 99.9192 101.014
90 45 1 97.1635 100.604 101.106
91 46 1 99.8731 101.656 102.562
92 46 1 100.457 100.901 97.3316
93 47 1 103.129 102.95 100.867
94 47 1 97.333 98.1022 100.903
95 48 1 102.775 97.6746 101.646
96 48 1 102.312 98.4588 102.39
97 49 1 102.56 101.909 99.7249
98 49 1 101.519 102.476 99.6213
99 50 1 98.8614 100.079 100.168
100 50 1 98.7855 100.88 101.095
101 51 1 100.015 97.3286 99.9694
102 51 1 100.245 97.8517 98.8712
103 52 1 98.6263 99.5009 97.7953
104 52 1 99.235 99.5575 102.785
105 53 1 97.4477 102.286 97.5164
106 53 1 97.9374 97.3228 97.8825
107 54 1 100.351 100.378 101.025
108 54 1 100.577 100.557 102.242
109 55 1 97.8642 101.956 102.433
110 55 1 97.7158 100.833 102.832
111 56 1 102.411 97.0858 97.6484
112 56 1 102.253 102.596 98.8183
113 57 1 98.0107 102.958 102.786
114 57 1 103.187 97.6866 102.731
115 58 1 98.2802 98.1986 100.486
116 58 1 98.1477 99.2686 100.041
117 59 1 98.9945 98.2231 102.359
118 59 1 98.6845 97.1593 101.905
119 60 1 98.2533 99.0382 102.681
120 60 1 99.0093 98.4352 97.4612
121 61 1 97.5047 100.354 100.157
122 61 1 102.783 100.789 99.3587
123 62 1 100.427 102.088 101.783
124 62 1 100.85 97.2745 101.983
125 63 1 100.797 98.9359 97.3965
126 63 1 99.6801 99.2103 97.7816
127 64 1 99.4954 101.542 99.2633
128 64 1 100.211 101.192 98.3297
129 65 1 98.9192 99.1498 101.774
130 65 1 98.8098 98.063 101.375
131 66 1 96.9216 97.6398 99.0705
132 66 1 102.52 102.965 99.8697
133 67 1 101.554 101.51 100.066
134 67 1 101.558 100.594 100.76
135 68 1 102.545 102.479 101.677
136 68 1 102.055 102.491 100.634
137 69 1 97.27 98.7357 102.368
138 69 1 98.0839 98.0407 102.938
139 70 1 101.778 102.253 97.033
140 70 1 100.641 102.52 102.725
141 71 1 97.8667 101.342 100.822
142 71 1 98.4715 100.999 99.8804
143 72 1 100.042 98.1463 97.743
144 72 1 99.4503 98.5801 98.7173
145 73 1 100.283 99.8597 97.2029
146 73 1 99.5673 100.603 102.71
147 74 1 102.042 101.171 97.2697
148 74 1 103.109 101.587 102.848
149 75 1 98.725 102.526 97.8246
150 75 1 98.8659 102.311 102.636
151 76 1 98.8003 101.543 98.4401
152 76 1 98.4145 101.498 97.3093
153 77 1 96.9254 97.9498 98.0361
154 77 1 97.052 102.816 98.3959
155 78 1 103.181 99.6851 101.69
156 78 1 102.287 100.436 101.416
157 79 1 101.787 98.2789 101.425
158 79 1 101.984 99.3751 101.889
159 80 1 98.2537 102.135 101.472
160 80 1 98.078 97.2427 100.98
161 81 2 98.4678 98.2953 99.4545
162 82 2 101.07 101.448 102.556
163 83 2 102.604 98.8549 100.246
164 84 2 100.241 102.898 101.089
165 85 2 100.754 97.9781 101.077
166 86 2 100.068 102.78 99.0401
167 87 2 100.687 98.0641 99.8378
168 88 2 97.8668 97.8377 101.915
169 89 2 101.171 100.025 101.557
170 90 2 98.7196 101.235 102.265
171 91 2 97.5111 97.4564 99.9479
172 92 2 99.6934 99.7285 98.7247
173 93 2 99.7072 100.923 101.651
174 94 2 102.521 99.7633 97.8033
175 95 2 100.8 99.8462 99.252
176 96 2 102.99 98.8864 97.3225
177 97 2 101.435 100.205 97.4565
178 98 2 97.803 98.7893 97.7473
179 99 2 99.1387 98.9795 100.622
180 100 2 98.2999 102.011 99.5816
181 101 2 101.997 101.539 101.165
182 102 2 97.2332 100.202 98.4583
183 103 2 102.626 100.977 100.45
184 104 2 99.4879 100.342 97.8112
185 105 2 102.861 102.6 102.704
186 106 2 99.593 100.945 100.203
187 107 2 102.056 97.7842 98.5162
188 108 2 100.029 100.553 99.2483
189 109 2 100.839 102.065 98.7455
190 110 2 100.005 98.6604 102.728
191 111 2 97.9365 98.8802 101.493
192 112 2 99.8071 102.184 98.2864
193 113 2 101.132 98.0294 98.0869
194 114 2 99.7673 102.801 102.162
195 115 2 102.554 101.988 97.8352
196 116 2 101.336 97.3252 97.2569
197 117 2 97.9564 100.821 101.762
198 118 2 97.3626 102.83 101.875
199 119 2 101.034 99.4147 102.433
200 120 2 101.762 100.438 102.406
ITEM: TIMESTEP
4000
ITEM: NUMBER OF ATOMS
200
ITEM: BOX BOUNDS pp pp pp
9.6895493263840024e+01 1.0310450673615998e+02
9.7017222714120251e+01 1.0298277728587975e+02
9.7017222714120251e+01 1.0298277728587975e+02
ITEM: ATOMS id mol type x y z
1 1 1 100.623 101.952 97.5786
2 1 1 99.5228 101.515 97.4857
3 2 1 101.884 101.632 98.8871
4 2 1 96.8998 101.68 98.7681
5 3 1 101.863 99.1852 97.2169
6 3 1 101.444 99.4769 98.315
7 4 1 100.036 98.8202 101.553
8 4 1 99.778 97.9399 100.767
9 5 1 102.427 97.8049 100.627
10 5 1 101.536 98.6114 100.403
11 6 1 97.3486 98.5656 99.9413
12 6 1 97.583 98.3174 98.8117
13 7 1 97.6711 99.8999 102.374
14 7 1 102.734 99.7327 102.715
15 8 1 102.445 99.8539 98.9977
16 8 1 101.55 100.475 98.5371
17 9 1 101.937 99.5564 100.809
18 9 1 102.631 98.6968 101.354
19 10 1 97.0552 99.1328 98.4857
20 10 1 97.1931 99.5541 99.5281
21 11 1 101.36 101.36 98.0055
22 11 1 102.5 100.925 98.2591
23 12 1 99.6093 98.2816 99.7715
24 12 1 100.341 98.8355 100.52
25 13 1 100.507 97.0916 98.0389
26 13 1 101.559 102.461 98.1052
27 14 1 99.1348 97.5169 99.2182
28 14 1 99.3885 102.461 99.8392
29 15 1 98.9136 102.576 98.7944
30 15 1 97.9576 97.2866 99.0288
31 16 1 100.51 102.008 99.8675
32 16 1 100.955 101.103 99.1542
33 17 1 100.933 101.179 101.361
34 17 1 99.9783 101.698 100.795
35 18 1 99.1155 102.942 100.925
36 18 1 98.4574 97.0848 99.9486
37 19 1 99.4707 97.3452 98.2111
38 19 1 99.1318 97.393 102.999
39 20 1 101.979 97.8475 99.6044
40 20 1 101.187 97.2904 98.9506
41 21 1 101.714 100.545 99.6611
42 21 1 100.677 100.903 100.209
43 22 1 101.725 99.3987 99.6278
44 22 1 102.553 98.6078 99.2168
45 23 1 98.7787 100.129 102.003
46 23 1 99.9519 99.8065 101.973
47 24 1 101.026 102.079 100.866
48 24 1 101.518 102.311 101.896
49 25 1 97.9028 101.112 98.9697
50 25 1 99.0006 100.679 98.9865
51 26 1 99.2902 102.038 101.575
52 26 1 98.8559 101.796 100.539
53 27 1 101.097 99.0239 101.316
54 27 1 100.982 99.7817 100.36
55 28 1 97.893 102.169 98.5325
56 28 1 97.5444 101.244 97.8589
57 29 1 102.972 101.987 100.698
58 29 1 97.326 101.493 99.7924
59 30 1 99.1083 99.2346 99.4639
60 30 1 100.3 98.9722 99.3893
61 31 1 99.9257 99.7621 100.103
62 31 1 99.3222 99.9287 101.08
63 32 1 98.3128 100.526 98.147
64 32 1 98.124 100.077 99.2464
65 33 1 100.285 97.5585 102.829
66 33 1 99.7823 102.541 97.3158
67 34 1 97.2717 99.3562 100.687
68 34 1 102.624 100.001 100.141
69 35 1 103.023 100.62 102.206
70 35 1 103.031 100.6 97.3898
71 36 1 98.238 99.165 98.7893
72 36 1 98.572 98.0426 98.4216
73 37 1 102.203 101.476 102.226
74 37 1 97.0807 101.645 101.719
75 38 1 99.7554 97.8146 101.83
76 38 1 100.814 98.3192 102.239
77 39 1 97.8277 102.371 100.422
78 39 1 97.2583 102.479 99.3984
79 40 1 101.802 97.2207 101.276
80 40 1 101.099 97.1146 100.333
81 41 1 102.057 97.3687 102.414
82 41 1 102.211 98.0576 97.4125
83 42 1 100.509 98.9888 98.3416
84 42 1 100.544 100.202 98.2349
85 43 1 97.6232 99.8912 97.5677
86 43 1 98.6179 100.378 97.0832
87 44 1 102.259 98.8185 98.2202
88 44 1 101.374 98.5494 99.0031
89 45 1 98.1531 99.8807 101.043
90 45 1 97.0676 100.459 101.098
91 46 1 99.8703 101.6 102.471
92 46 1 100.481 100.9 97.3038
93 47 1 103.215 102.981 100.945
94 47 1 97.2546 98.1621 100.973
95 48 1 102.843 97.6413 101.703
96 48 1 102.4 98.4693 102.429
97 49 1 102.56 101.89 99.6595