ITEM: TIMESTEP
0
ITEM: NUMBER OF ATOMS
200
ITEM: BOX BOUNDS pp pp pp
9.7017222714120251e+01 1.0298277728587975e+02
9.7017222714120251e+01 1.0298277728587975e+02
9.7017222714120251e+01 1.0298277728587975e+02
ITEM: ATOMS id mol type x y z
1 1 1 100.616 102.018 97.6255
2 1 1 99.5473 101.522 97.5031
3 2 1 101.853 101.553 98.8827
4 2 1 97.0319 101.785 98.6964
5 3 1 101.767 99.1472 97.1866
6 3 1 101.404 99.4826 98.2643
7 4 1 99.9787 98.7942 101.489
8 4 1 99.6554 97.8849 100.794
9 5 1 102.335 97.81 100.689
10 5 1 101.482 98.6209 100.471
11 6 1 97.4917 98.4992 99.9719
12 6 1 97.6826 98.3428 98.8473
13 7 1 97.8216 99.8872 102.306
14 7 1 102.675 99.6465 102.71
15 8 1 102.368 99.8056 98.9862
16 8 1 101.5 100.483 98.5851
17 9 1 101.939 99.5306 100.913
18 9 1 102.646 98.7007 101.387
19 10 1 97.1345 99.1754 98.3961
20 10 1 97.2861 99.433 99.4863
21 11 1 101.307 101.328 98.0011
22 11 1 102.418 100.892 98.2288
23 12 1 99.5849 98.2866 99.8019
24 12 1 100.348 98.8623 100.49
25 13 1 100.482 97.1685 97.9817
26 13 1 101.522 102.535 98.0965
27 14 1 99.198 97.5179 99.2092
28 14 1 99.4282 102.478 99.8478
29 15 1 99.0425 102.551 98.797
30 15 1 98.0847 97.3295 98.9806
31 16 1 100.442 101.999 99.7805
32 16 1 100.89 101.115 99.1397
33 17 1 100.807 101.203 101.382
34 17 1 99.9386 101.726 100.788
35 18 1 99.1325 102.821 100.917
36 18 1 98.553 97.1227 99.9548
37 19 1 99.3709 97.3775 98.1293
38 19 1 99.0366 97.3552 102.954
39 20 1 101.912 97.8641 99.6874
40 20 1 101.17 97.3001 98.8781
41 21 1 101.663 100.545 99.6818
42 21 1 100.643 101.039 100.178
43 22 1 101.591 99.3194 99.6315
44 22 1 102.511 98.6649 99.1959
45 23 1 98.8366 100.175 101.985
46 23 1 100.018 99.8013 101.987
47 24 1 100.965 102.081 100.756
48 24 1 101.382 102.279 101.826
49 25 1 97.9266 101.136 98.8697
50 25 1 99.0048 100.63 98.9939
51 26 1 99.3054 101.999 101.614
52 26 1 98.8329 101.805 100.525
53 27 1 101.036 99.0158 101.361
54 27 1 100.985 99.7151 100.418
55 28 1 98.059 102.165 98.4742
56 28 1 97.5446 101.282 97.8378
57 29 1 102.868 101.908 100.746
58 29 1 97.4784 101.476 99.7821
59 30 1 99.1116 99.2988 99.4868
60 30 1 100.268 98.9962 99.4209
61 31 1 99.9443 99.806 100.108
62 31 1 99.3891 99.89 101.139
63 32 1 98.3751 100.547 98.1217
64 32 1 98.1116 100.091 99.2311
65 33 1 100.227 97.5657 102.821
66 33 1 99.7608 102.602 97.3289
67 34 1 97.3459 99.338 100.663
68 34 1 102.479 99.9299 100.089
69 35 1 102.889 100.609 102.171
70 35 1 102.894 100.591 97.3473
71 36 1 98.2912 99.1874 98.767
72 36 1 98.6079 98.0783 98.4243
73 37 1 102.104 101.534 102.257
74 37 1 97.1964 101.672 101.745
75 38 1 99.8163 97.8477 101.859
76 38 1 100.876 98.3683 102.213
77 39 1 97.8644 102.338 100.449
78 39 1 97.4374 102.503 99.3709
79 40 1 101.709 97.1861 101.299
80 40 1 101.053 97.1231 100.356
81 41 1 101.926 97.3584 102.389
82 41 1 102.034 98.0711 97.3704
83 42 1 100.503 98.9416 98.4051
84 42 1 100.501 100.169 98.2881
85 43 1 97.6175 99.8004 97.4274
86 43 1 98.6943 100.331 97.0992
87 44 1 102.135 98.7685 98.1638
88 44 1 101.324 98.4748 98.9928
89 45 1 98.2454 99.909 101.156
90 45 1 97.2606 100.572 101.119
91 46 1 99.8673 101.695 102.495
92 46 1 100.464 100.971 97.3249
93 47 1 102.955 102.948 100.911
94 47 1 97.4217 98.0916 100.949
95 48 1 102.682 97.6251 101.658
96 48 1 102.177 98.4448 102.384
97 49 1 102.484 101.904 99.684
98 49 1 101.528 102.555 99.5755
99 50 1 98.8708 100.066 100.244
100 50 1 98.8658 100.911 101.106
101 51 1 100.064 97.3105 99.9541
102 51 1 100.302 97.9466 98.929
103 52 1 98.7334 99.5816 97.8669
104 52 1 99.3321 99.5552 102.792
105 53 1 97.6178 102.25 97.4759
106 53 1 98.0915 97.3023 97.9137
107 54 1 100.325 100.368 101.033
108 54 1 100.595 100.628 102.249
109 55 1 97.971 101.949 102.435
110 55 1 97.8088 100.837 102.779
111 56 1 102.409 97.1037 97.6685
112 56 1 102.311 102.582 98.8128
113 57 1 97.9998 102.978 102.766
114 57 1 102.968 97.6615 102.722
115 58 1 98.3834 98.1846 100.481
116 58 1 98.2218 99.2776 99.9909
117 59 1 98.8491 98.2204 102.4
118 59 1 98.6882 97.1226 101.939
119 60 1 98.2955 99.1012 102.764
120 60 1 98.9972 98.4009 97.4674
121 61 1 97.5718 100.324 100.12
122 61 1 102.735 100.791 99.3385
123 62 1 100.396 102.099 101.733
124 62 1 100.843 97.2488 101.92
125 63 1 100.745 98.885 97.3639
126 63 1 99.6661 99.1582 97.7621
127 64 1 99.5494 101.588 99.289
128 64 1 100.206 101.203 98.3444
129 65 1 99.0556 99.1289 101.831
130 65 1 98.8253 98.0301 101.369
131 66 1 97.0282 97.5938 99.0604
132 66 1 102.526 102.943 99.8857
133 67 1 101.537 101.604 100.013
134 67 1 101.444 100.627 100.718
135 68 1 102.412 102.427 101.715
136 68 1 101.967 102.457 100.586
137 69 1 97.2666 98.7864 102.279
138 69 1 97.9494 98.0424 102.982
139 70 1 101.692 102.205 97.079
140 70 1 100.614 102.487 102.652
141 71 1 97.8685 101.351 100.762
142 71 1 98.4603 100.967 99.8535
143 72 1 100.014 98.1342 97.745
144 72 1 99.4564 98.5916 98.7312
145 73 1 100.323 99.8587 97.2719
146 73 1 99.6638 100.625 102.722
147 74 1 101.968 101.11 97.2648
148 74 1 102.98 101.552 102.823
149 75 1 98.7815 102.429 97.7837
150 75 1 98.9881 102.275 102.6
151 76 1 98.924 101.463 98.3918
152 76 1 98.4614 101.499 97.3237
153 77 1 97.1089 97.964 97.9651
154 77 1 97.2538 102.792 98.3167
155 78 1 102.982 99.6556 101.647
156 78 1 102.187 100.466 101.401
157 79 1 101.694 98.233 101.492
158 79 1 101.962 99.3592 101.949
159 80 1 98.2665 102.085 101.453
160 80 1 98.1056 97.2351 101.018
161 81 2 98.5445 98.2825 99.4682
162 82 2 101.053 101.469 102.548
163 83 2 102.484 98.8598 100.222
164 84 2 100.174 102.932 101.115
165 85 2 100.728 97.8943 101.093
166 86 2 100.085 102.819 99.0043
167 87 2 100.747 98.0616 99.9367
168 88 2 97.8802 97.8392 101.939
169 89 2 101.153 100.063 101.576
170 90 2 98.8637 101.216 102.243
171 91 2 97.5421 97.4529 99.9874
172 92 2 99.6824 99.751 98.7198
173 93 2 99.75 100.903 101.677
174 94 2 102.417 99.8205 97.8317
175 95 2 100.776 99.8975 99.2439
176 96 2 102.939 98.786 97.3022
177 97 2 101.325 100.276 97.5132
178 98 2 97.977 98.8357 97.8241
179 99 2 99.1383 98.9732 100.708
180 100 2 98.3811 101.99 99.5733
181 101 2 101.815 101.528 101.164
182 102 2 97.3132 100.256 98.3715
183 103 2 102.506 100.961 100.402
184 104 2 99.5603 100.403 97.8449
185 105 2 102.784 102.592 102.739
186 106 2 99.5735 100.907 100.238
187 107 2 102.051 97.7303 98.4675
188 108 2 99.9924 100.591 99.3122
189 109 2 100.8 102.082 98.7858
190 110 2 99.9337 98.5798 102.7
191 111 2 98.0398 98.9374 101.574
192 112 2 99.855 102.163 98.2782
193 113 2 101.137 98.0527 98.0614
194 114 2 99.7656 102.822 102.153
195 115 2 102.513 101.995 97.8063
196 116 2 101.28 97.247 97.3075
197 117 2 98.0075 100.915 101.748
198 118 2 97.4119 102.793 101.887
199 119 2 100.979 99.4877 102.44
200 120 2 101.766 100.414 102.429
ITEM: TIMESTEP
1000
ITEM: NUMBER OF ATOMS
200
ITEM: BOX BOUNDS pp pp pp
9.6987245304022295e+01 1.0301275469597770e+02
9.7017222714120251e+01 1.0298277728587975e+02
9.7017222714120251e+01 1.0298277728587975e+02
ITEM: ATOMS id mol type x y z
1 1 1 100.609 101.964 97.5943
2 1 1 99.4746 101.479 97.5218
3 2 1 101.835 101.524 98.9364
4 2 1 96.9739 101.71 98.736
5 3 1 101.794 99.1589 97.2128
6 3 1 101.43 99.4778 98.3207
7 4 1 99.9959 98.8253 101.507
8 4 1 99.7065 97.938 100.773
9 5 1 102.298 97.7852 100.702
10 5 1 101.402 98.553 100.43
11 6 1 97.425 98.4635 99.8401
12 6 1 97.652 98.2453 98.7322
13 7 1 97.8221 99.8848 102.341
14 7 1 102.733 99.7427 102.72
15 8 1 102.375 99.7262 98.9795
16 8 1 101.552 100.454 98.6099
17 9 1 101.927 99.4522 100.879
18 9 1 102.707 98.6964 101.433
19 10 1 97.1766 99.1549 98.4063
20 10 1 97.2215 99.4877 99.524
21 11 1 101.289 101.29 98.0667
22 11 1 102.449 100.894 98.2719
23 12 1 99.5045 98.3522 99.8038
24 12 1 100.312 98.8794 100.494
25 13 1 100.483 97.1637 98.0336
26 13 1 101.527 102.495 98.0626
27 14 1 99.2038 97.506 99.1927
28 14 1 99.4126 102.489 99.92
29 15 1 99.034 102.503 98.8381
30 15 1 98.0832 97.2229 98.9581
31 16 1 100.508 101.972 99.8372
32 16 1 100.928 101.085 99.1511
33 17 1 100.938 101.186 101.366
34 17 1 100.045 101.691 100.799
35 18 1 99.1114 102.859 100.932
36 18 1 98.5405 97.2188 99.9699
37 19 1 99.4096 97.2886 98.1678
38 19 1 99.0335 97.3507 103.04
39 20 1 101.88 97.7974 99.6574
40 20 1 101.158 97.2754 98.9026
41 21 1 101.719 100.522 99.6511
42 21 1 100.713 100.956 100.204
43 22 1 101.691 99.3703 99.7154
44 22 1 102.507 98.6393 99.2102
45 23 1 98.8301 100.207 102.074
46 23 1 99.9988 99.8327 102.007
47 24 1 101.033 102.118 100.791
48 24 1 101.448 102.301 101.895
49 25 1 97.9238 101.136 98.9365
50 25 1 99.0263 100.64 99.0519
51 26 1 99.3362 102.002 101.61
52 26 1 98.869 101.827 100.525
53 27 1 101.023 99.0143 101.324
54 27 1 100.96 99.7758 100.394
55 28 1 98.0171 102.14 98.5342
56 28 1 97.57 101.229 97.868
57 29 1 102.907 101.948 100.646
58 29 1 97.4985 101.456 99.8148
59 30 1 99.0929 99.2919 99.4394
60 30 1 100.248 99.0048 99.4199
61 31 1 99.8677 99.8092 100.178
62 31 1 99.2959 99.9348 101.149
63 32 1 98.3687 100.493 98.1788
64 32 1 98.1114 100.103 99.2748
65 33 1 100.167 97.61 102.812
66 33 1 99.7452 102.533 97.2871
67 34 1 97.382 99.2846 100.676
68 34 1 102.539 99.9533 100.162
69 35 1 102.9 100.682 102.174
70 35 1 102.937 100.622 97.3678
71 36 1 98.2834 99.1901 98.7132
72 36 1 98.629 98.0467 98.3834
73 37 1 102.04 101.445 102.181
74 37 1 97.0783 101.592 101.638
75 38 1 99.8122 97.8455 101.83
76 38 1 100.882 98.3213 102.207
77 39 1 97.8255 102.406 100.463
78 39 1 97.3715 102.493 99.3478
79 40 1 101.648 97.2458 101.367
80 40 1 101.02 97.1408 100.329
81 41 1 101.951 97.3306 102.447
82 41 1 102.149 98.1013 97.3983
83 42 1 100.511 98.9596 98.3505
84 42 1 100.566 100.177 98.3051
85 43 1 97.6225 99.7784 97.4306
86 43 1 98.6484 100.387 97.1443
87 44 1 102.205 98.7815 98.2026
88 44 1 101.315 98.5887 99.0559
89 45 1 98.1891 99.8958 101.183
90 45 1 97.2011 100.519 101.116
91 46 1 99.8448 101.676 102.55
92 46 1 100.482 100.927 97.3344
93 47 1 103.002 102.97 100.883
94 47 1 97.3656 98.1283 100.857
95 48 1 102.696 97.6725 101.669
96 48 1 102.277 98.5021 102.407
97 49 1 102.524 101.93 99.6509
98 49 1 101.527 102.526 99.6019
99 50 1 98.8133 100.06 100.243
100 50 1 98.7927 100.927 101.117
101 51 1 100.027 97.325 99.9536
102 51 1 100.223 97.8662 98.8471
103 52 1 98.6671 99.5389 97.7968
104 52 1 99.2698 99.5679 102.809
105 53 1 97.5942 102.214 97.4525
106 53 1 98.0728 97.2982 97.8357
107 54 1 100.318 100.373 101.048
108 54 1 100.593 100.622 102.253
109 55 1 97.8526 101.949 102.369
110 55 1 97.7582 100.854 102.793
111 56 1 102.367 97.1237 97.7073
112 56 1 102.328 102.567 98.7936
113 57 1 97.9873 102.956 102.74
114 57 1 103.044 97.7208 102.655
115 58 1 98.3306 98.2035 100.416
116 58 1 98.1964 99.2575 99.9959
117 59 1 98.8762 98.1471 102.333
118 59 1 98.5983 97.0882 101.881
119 60 1 98.3416 99.0743 102.687
120 60 1 98.9865 98.4629 97.4508
121 61 1 97.5648 100.388 100.139
122 61 1 102.785 100.78 99.3478
123 62 1 100.438 102.105 101.758
124 62 1 100.78 97.2947 101.964
125 63 1 100.79 98.8093 97.2739
126 63 1 99.7233 99.2011 97.7466
127 64 1 99.579 101.593 99.2807
128 64 1 100.176 101.152 98.3237
129 65 1 99.0261 99.1205 101.814
130 65 1 98.8104 98.0569 101.314
131 66 1 96.97 97.5485 99.0269
132 66 1 102.561 102.923 99.8931
133 67 1 101.581 101.564 100.014
134 67 1 101.534 100.613 100.716
135 68 1 102.47 102.477 101.727
136 68 1 102.008 102.56 100.637
137 69 1 97.3086 98.8276 102.329
138 69 1 97.9857 98.0522 102.928
139 70 1 101.76 102.25 97.0697
140 70 1 100.653 102.526 102.714
141 71 1 97.8089 101.344 100.825
142 71 1 98.4946 101.036 99.8867
143 72 1 100.005 98.1546 97.7496
144 72 1 99.4579 98.5963 98.7549
145 73 1 100.377 99.8327 97.2651
146 73 1 99.6345 100.617 102.745
147 74 1 102.007 101.145 97.2504
148 74 1 102.974 101.572 102.746
149 75 1 98.7712 102.461 97.799
150 75 1 98.8671 102.312 102.61
151 76 1 98.8584 101.499 98.4423
152 76 1 98.4437 101.57 97.3075
153 77 1 97.1192 97.9281 97.831
154 77 1 97.2258 102.802 98.2948
155 78 1 103.042 99.6374 101.644
156 78 1 102.181 100.438 101.466
157 79 1 101.739 98.2919 101.531
158 79 1 102.053 99.3942 101.941
159 80 1 98.2605 102.122 101.395
160 80 1 98.0694 97.3043 100.963
161 81 2 98.489 98.246 99.3678
162 82 2 101.035 101.51 102.62
163 83 2 102.535 98.8425 100.231
164 84 2 100.159 102.886 101.142
165 85 2 100.726 97.943 101.091
166 86 2 100.109 102.779 99.039
167 87 2 100.719 98.0526 99.8621
168 88 2 97.853 97.8787 101.886
169 89 2 101.147 100.021 101.535
170 90 2 98.8024 101.238 102.265
171 91 2 97.5074 97.4524 99.9229
172 92 2 99.7023 99.7331 98.6991
173 93 2 99.6879 100.907 101.691
174 94 2 102.476 99.779 97.8287
175 95 2 100.807 99.8735 99.3015
176 96 2 102.944 98.8271 97.3089
177 97 2 101.438 100.249 97.5499
178 98 2 97.9276 98.797 97.7444
179 99 2 99.1123 98.993 100.668
180 100 2 98.3567 102.025 99.6569
181 101 2 101.926 101.595 101.141
182 102 2 97.2963 100.216 98.4605
183 103 2 102.551 101.007 100.4
184 104 2 99.5537 100.334 97.8226
185 105 2 102.879 102.637 102.781
186 106 2 99.5962 100.875 100.257
187 107 2 102.047 97.7567 98.5058
188 108 2 100.041 100.556 99.3016
189 109 2 100.779 102.061 98.764
190 110 2 99.9265 98.6586 102.648
191 111 2 98.0023 98.9241 101.503
192 112 2 99.8247 102.145 98.255
193 113 2 101.135 98.0762 98.0876
194 114 2 99.7186 102.81 102.153
195 115 2 102.54 101.969 97.7866
196 116 2 101.254 97.3599 97.3256
197 117 2 97.9635 100.884 101.753
198 118 2 97.4303 102.862 101.843
199 119 2 101.094 99.4388 102.401
200 120 2 101.707 100.372 102.492
ITEM: TIMESTEP
2000
ITEM: NUMBER OF ATOMS
200
ITEM: BOX BOUNDS pp pp pp
9.6956966615944111e+01 1.0304303338405589e+02
9.7017222714120251e+01 1.0298277728587975e+02
9.7017222714120251e+01 1.0298277728587975e+02
ITEM: ATOMS id mol type x y z
1 1 1 100.621 101.942 97.5953
2 1 1 99.4835 101.477 97.5071
3 2 1 101.88 101.571 98.9067
4 2 1 96.9932 101.727 98.7648
5 3 1 101.813 99.2501 97.132
6 3 1 101.456 99.4773 98.2827
7 4 1 100.049 98.8254 101.459
8 4 1 99.7702 97.9129 100.78
9 5 1 102.311 97.7798 100.641
10 5 1 101.5 98.6333 100.321
11 6 1 97.4246 98.4844 99.9356
12 6 1 97.6835 98.3139 98.7842
13 7 1 97.799 99.8611 102.456
14 7 1 102.702 99.75 102.647
15 8 1 102.559 99.7513 98.9679
16 8 1 101.652 100.448 98.6306
17 9 1 101.948 99.4741 100.854
18 9 1 102.758 98.7644 101.432
19 10 1 97.2197 99.1587 98.426
20 10 1 97.2697 99.464 99.5567
21 11 1 101.272 101.251 98.0686
22 11 1 102.47 100.906 98.1958
23 12 1 99.5647 98.3049 99.7917
24 12 1 100.394 98.798 100.479
25 13 1 100.498 97.0895 98.0387
26 13 1 101.512 102.433 98.1536
27 14 1 99.1557 97.5164 99.1954
28 14 1 99.357 102.516 99.8895
29 15 1 99.0033 102.506 98.838
30 15 1 98.036 97.3023 98.9546
31 16 1 100.455 101.947 99.8483
32 16 1 100.964 101.059 99.1645
33 17 1 100.876 101.141 101.354
34 17 1 99.9716 101.668 100.8
35 18 1 99.1325 102.893 100.943
36 18 1 98.4709 97.2031 99.9598
37 19 1 99.462 97.3156 98.1728
38 19 1 99.0641 97.3764 102.995
39 20 1 101.902 97.9626 99.5744
40 20 1 101.215 97.2586 98.9086
41 21 1 101.72 100.441 99.7086
42 21 1 100.683 100.928 100.214
43 22 1 101.79 99.3611 99.5211
44 22 1 102.671 98.6263 99.2012
45 23 1 98.8012 100.141 101.972
46 23 1 99.9799 99.7983 102.007
47 24 1 100.98 102.108 100.777
48 24 1 101.441 102.321 101.857
49 25 1 97.9153 101.124 98.8961
50 25 1 98.982 100.61 99.0873
51 26 1 99.2217 101.983 101.657
52 26 1 98.8832 101.849 100.533
53 27 1 101.093 98.9778 101.279
54 27 1 100.97 99.7202 100.363
55 28 1 97.9618 102.216 98.4906
56 28 1 97.4516 101.312 97.8554
57 29 1 102.907 101.933 100.719
58 29 1 97.3917 101.511 99.7717
59 30 1 99.104 99.3092 99.5276
60 30 1 100.25 98.9813 99.4263
61 31 1 99.9303 99.7725 100.13
62 31 1 99.3378 99.97 101.134
63 32 1 98.3891 100.482 98.1399
64 32 1 98.0755 100.098 99.28
65 33 1 100.254 97.581 102.83
66 33 1 99.7689 102.568 97.3539
67 34 1 97.3629 99.32 100.725
68 34 1 102.594 99.9623 100.153
69 35 1 102.91 100.687 102.148
70 35 1 102.952 100.586 97.3135
71 36 1 98.3639 99.1773 98.7222
72 36 1 98.6052 98.0166 98.3407
73 37 1 102.129 101.545 102.252
74 37 1 97.1053 101.614 101.689
75 38 1 99.9072 97.8635 101.871
76 38 1 100.978 98.3254 102.221
77 39 1 97.7825 102.368 100.459
78 39 1 97.3157 102.564 99.382
79 40 1 101.746 97.2306 101.353
80 40 1 101.065 97.1535 100.355
81 41 1 101.911 97.4392 102.441
82 41 1 102.047 98.1631 97.3986
83 42 1 100.512 98.9673 98.3602
84 42 1 100.566 100.187 98.2478
85 43 1 97.6001 99.8351 97.5289
86 43 1 98.6209 100.315 97.0848
87 44 1 102.277 98.7924 98.2336
88 44 1 101.329 98.5981 98.9589
89 45 1 98.1968 99.9165 101.044
90 45 1 97.1348 100.461 101.057
91 46 1 99.886 101.637 102.521
92 46 1 100.475 100.903 97.3457
93 47 1 102.99 102.949 100.899
94 47 1 97.3367 98.0993 100.971
95 48 1 102.724 97.6535 101.693
96 48 1 102.339 98.4965 102.421
97 49 1 102.526 102.001 99.7007
98 49 1 101.395 102.442 99.6054
99 50 1 98.8909 100.077 100.204
100 50 1 98.7667 100.858 101.098
101 51 1 100.023 97.3374 99.9659
102 51 1 100.261 97.8927 98.9087
103 52 1 98.7109 99.5364 97.8302
104 52 1 99.289 99.5608 102.785
105 53 1 97.4996 102.289 97.4541
106 53 1 97.9572 97.3857 97.7885
107 54 1 100.29 100.385 101.032
108 54 1 100.57 100.608 102.249
109 55 1 97.8522 101.968 102.402
110 55 1 97.7754 100.847 102.82
111 56 1 102.368 97.1731 97.7077
112 56 1 102.336 102.628 98.8239
113 57 1 98.0121 102.963 102.771
114 57 1 103.126 97.7025 102.704
115 58 1 98.3216 98.1857 100.47
116 58 1 98.204 99.29 100.058
117 59 1 98.8981 98.1921 102.338
118 59 1 98.6444 97.0998 101.884
119 60 1 98.3487 99.0345 102.695
120 60 1 99.0365 98.4234 97.4397
121 61 1 97.4932 100.434 100.075
122 61 1 102.696 100.78 99.3338
123 62 1 100.398 102.059 101.713
124 62 1 100.824 97.2478 101.945
125 63 1 100.792 98.8295 97.3412
126 63 1 99.6861 99.185 97.7489
127 64 1 99.5482 101.627 99.3005
128 64 1 100.098 101.145 98.3043
129 65 1 99.088 99.0981 101.824
130 65 1 98.834 97.9993 101.328
131 66 1 96.9906 97.642 99.0851
132 66 1 102.485 103.03 99.9047
133 67 1 101.575 101.492 100.048
134 67 1 101.494 100.569 100.731
135 68 1 102.504 102.438 101.703
136 68 1 101.954 102.422 100.603
137 69 1 97.293 98.8084 102.339
138 69 1 98.0447 98.036 102.913
139 70 1 101.724 102.243 97.0597
140 70 1 100.612 102.489 102.656
141 71 1 97.7291 101.312 100.823
142 71 1 98.4091 100.98 99.9322
143 72 1 100.027 98.1332 97.7224
144 72 1 99.3904 98.6093 98.6942
145 73 1 100.314 99.8612 97.2456
146 73 1 99.592 100.588 102.731
147 74 1 102.011 101.179 97.2912
148 74 1 103.029 101.545 102.819
149 75 1 98.7314 102.548 97.8161
150 75 1 98.932 102.287 102.682
151 76 1 98.847 101.475 98.4264
152 76 1 98.4333 101.499 97.3509
153 77 1 96.9923 98.0707 97.9614
154 77 1 97.1456 102.87 98.3552
155 78 1 103.192 99.6576 101.724
156 78 1 102.213 100.327 101.456
157 79 1 101.823 98.2781 101.499
158 79 1 101.989 99.3847 101.933
159 80 1 98.1933 102.078 101.406
160 80 1 98.0167 97.2886 101.052
161 81 2 98.5088 98.3024 99.4696
162 82 2 101.046 101.457 102.556
163 83 2 102.576 98.8546 100.251
164 84 2 100.184 102.934 101.101
165 85 2 100.82 97.9614 101.099
166 86 2 100.126 102.811 99.062
167 87 2 100.776 98.018 99.845
168 88 2 97.8099 97.9007 101.908
169 89 2 101.089 99.994 101.555
170 90 2 98.7145 101.201 102.296
171 91 2 97.4755 97.4615 99.9962
172 92 2 99.7024 99.7506 98.7236
173 93 2 99.6607 100.932 101.69
174 94 2 102.472 99.8194 97.785
175 95 2 100.806 99.834 99.2125
176 96 2 102.976 98.9418 97.3207
177 97 2 101.347 100.203 97.4668
178 98 2 97.9184 98.8221 97.7406
179 99 2 99.2268 99.0015 100.653
180 100 2 98.3368 101.991 99.5767
181 101 2 101.948 101.457 101.186
182 102 2 97.251 100.258 98.4218
183 103 2 102.561 101.001 100.406
184 104 2 99.5398 100.342 97.8107
185 105 2 102.784 102.629 102.733
186 106 2 99.5696 100.888 100.229
187 107 2 102.072 97.7918 98.5158
188 108 2 100.034 100.604 99.3154
189 109 2 100.738 102.012 98.7597
190 110 2 99.9491 98.6318 102.636
191 111 2 98.0155 98.9029 101.53
192 112 2 99.7959 102.174 98.2823
193 113 2 101.128 98.0003 98.0778
194 114 2 99.7406 102.787 102.16
195 115 2 102.573 102.045 97.813
196 116 2 101.284 97.2473 97.3491
197 117 2 97.9217 100.805 101.739
198 118 2 97.4175 102.872 101.873
199 119 2 101.013 99.4203 102.379
200 120 2 101.731 100.42 102.423
ITEM: TIMESTEP
3000
ITEM: NUMBER OF ATOMS
200
ITEM: BOX BOUNDS pp pp pp
9.6926383621991647e+01 1.0307361637800835e+02
9.7017222714120251e+01 1.0298277728587975e+02
9.7017222714120251e+01 1.0298277728587975e+02
ITEM: ATOMS id mol type x y z
1 1 1 100.595 101.956 97.5778
2 1 1 99.4855 101.514 97.4587
3 2 1 101.917 101.647 98.8517
4 2 1 96.9755 101.705 98.7059
5 3 1 101.895 99.2651 97.2052
6 3 1 101.493 99.4535 98.3609
7 4 1 100.037 98.7911 101.574
8 4 1 99.7317 97.9651 100.778
9 5 1 102.453 97.773 100.637
10 5 1 101.518 98.565 100.435
11 6 1 97.3493 98.4728 99.8579
12 6 1 97.5944 98.2867 98.7445
13 7 1 97.7926 99.9295 102.278
14 7 1 102.804 99.7755 102.701
15 8 1 102.459 99.7013 99.0198
16 8 1 101.661 100.464 98.6801
17 9 1 101.987 99.4728 100.866
18 9 1 102.76 98.6977 101.411
19 10 1 97.0995 99.2103 98.452
20 10 1 97.2256 99.4761 99.5776
21 11 1 101.302 101.26 98.0031
22 11 1 102.494 100.936 98.2385
23 12 1 99.5679 98.3551 99.7909
24 12 1 100.346 98.8896 100.494
25 13 1 100.457 97.0869 98.0296
26 13 1 101.536 102.495 98.1352
27 14 1 99.2187 97.5567 99.1751
28 14 1 99.3697 102.48 99.8757
29 15 1 98.9646 102.526 98.8574
30 15 1 98.0046 97.2829 98.9222
31 16 1 100.504 102.041 99.8422
32 16 1 100.965 101.108 99.1647
33 17 1 100.86 101.164 101.353
34 17 1 99.9367 101.694 100.772
35 18 1 99.1393 102.841 100.879
36 18 1 98.513 97.1873 99.9017
37 19 1 99.3864 97.2897 98.1517
38 19 1 99.025 97.4074 103
39 20 1 101.888 97.8209 99.7131
40 20 1 101.161 97.2915 98.9269
41 21 1 101.704 100.477 99.7453
42 21 1 100.682 100.969 100.203
43 22 1 101.663 99.2913 99.6512
44 22 1 102.557 98.5795 99.2488
45 23 1 98.8318 100.184 102.044
46 23 1 99.9712 99.789 101.937
47 24 1 101.064 102.11 100.791
48 24 1 101.483 102.359 101.9
49 25 1 97.9172 101.146 98.9422
50 25 1 98.9981 100.643 99.0866
51 26 1 99.2682 101.983 101.622
52 26 1 98.8363 101.789 100.548
53 27 1 101.056 98.9694 101.305
54 27 1 101.004 99.7434 100.371
55 28 1 97.9853 102.176 98.5084
56 28 1 97.5592 101.244 97.8874
57 29 1 102.972 101.956 100.673
58 29 1 97.3817 101.435 99.7764
59 30 1 99.0662 99.2507 99.474
60 30 1 100.253 98.9957 99.3768
61 31 1 99.8743 99.7707 100.127
62 31 1 99.3066 99.9267 101.126
63 32 1 98.3124 100.474 98.1186
64 32 1 98.0871 100.094 99.2979
65 33 1 100.239 97.5072 102.85
66 33 1 99.6715 102.562 97.2985
67 34 1 97.2546 99.3691 100.72
68 34 1 102.577 99.9876 100.139
69 35 1 102.986 100.735 102.145
70 35 1 102.93 100.609 97.3662
71 36 1 98.245 99.2034 98.7713
72 36 1 98.5598 98.0759 98.4003
73 37 1 102.189 101.532 102.199
74 37 1 97.0805 101.774 101.69
75 38 1 99.7595 97.8275 101.883
76 38 1 100.844 98.2993 102.244
77 39 1 97.8168 102.378 100.444
78 39 1 97.3299 102.502 99.3871
79 40 1 101.721 97.2136 101.28
80 40 1 101.096 97.0719 100.258
81 41 1 101.928 97.2823 102.395
82 41 1 102.11 98.0852 97.3607
83 42 1 100.54 99.0251 98.3407
84 42 1 100.617 100.218 98.2933
85 43 1 97.5408 99.8245 97.4503
86 43 1 98.6025 100.344 97.0889
87 44 1 102.25 98.7669 98.229
88 44 1 101.388 98.471 99.0154
89 45 1 98.1383 99.9548 101.123
90 45 1 97.1695 100.513 101.125
91 46 1 99.903 101.689 102.498
92 46 1 100.463 100.958 97.2931
93 47 1 103.146 102.964 100.92
94 47 1 97.3219 98.1221 100.9
95 48 1 102.764 97.6749 101.693
96 48 1 102.359 98.5404 102.409
97 49 1 102.568 101.896 99.7089
98 49 1 101.571 102.434 99.5192
99 50 1 98.8224 100.081 100.205
100 50 1 98.7398 100.891 101.087
101 51 1 100.035 97.3143 99.9452
102 51 1 100.244 97.8914 98.8994
103 52 1 98.6916 99.5302 97.8118
104 52 1 99.3267 99.5573 102.789
105 53 1 97.6006 102.207 97.4746
106 53 1 98.1087 97.3056 97.7932
107 54 1 100.296 100.324 101.01
108 54 1 100.589 100.565 102.229
109 55 1 97.8685 101.964 102.464
110 55 1 97.6845 100.847 102.79
111 56 1 102.472 97.1243 97.6769
112 56 1 102.459 102.651 98.8152
113 57 1 97.9849 102.956 102.742
114 57 1 103.135 97.6754 102.681
115 58 1 98.2902 98.1962 100.45
116 58 1 98.1307 99.273 100.04
117 59 1 98.8221 98.2285 102.366
118 59 1 98.6393 97.1451 101.911
119 60 1 98.2812 99.0759 102.679
120 60 1 98.9742 98.4934 97.4845
121 61 1 97.4633 100.432 100.07
122 61 1 102.718 100.778 99.3221
123 62 1 100.459 102.094 101.69
124 62 1 100.83 97.2716 101.955
125 63 1 100.763 98.8439 97.2977
126 63 1 99.6841 99.1822 97.7395
127 64 1 99.5018 101.607 99.269
128 64 1 100.205 101.2 98.3262
129 65 1 99.0411 99.1207 101.807
130 65 1 98.8202 98.0339 101.355
131 66 1 96.8864 97.5834 99.0285
132 66 1 102.611 102.939 99.9158
133 67 1 101.599 101.49 100.029
134 67 1 101.542 100.566 100.76
135 68 1 102.475 102.534 101.636
136 68 1 102.008 102.421 100.567
137 69 1 97.2493 98.8303 102.35
138 69 1 97.9637 98.0607 102.964
139 70 1 101.775 102.242 96.9959
140 70 1 100.627 102.475 102.658
141 71 1 97.7682 101.4 100.75
142 71 1 98.3895 100.982 99.9072
143 72 1 99.9812 98.1375 97.7555
144 72 1 99.4189 98.5732 98.7386
145 73 1 100.33 99.8789 97.3058
146 73 1 99.616 100.615 102.697
147 74 1 102.033 101.224 97.2321
148 74 1 103.108 101.587 102.855
149 75 1 98.6989 102.398 97.7828
150 75 1 98.8678 102.319 102.599
151 76 1 98.8165 101.476 98.4325
152 76 1 98.4418 101.456 97.2708
153 77 1 97.0264 97.9913 97.8764
154 77 1 97.1918 102.862 98.2316
155 78 1 103.134 99.6416 101.685
156 78 1 102.223 100.383 101.502
157 79 1 101.75 98.2343 101.603
158 79 1 101.978 99.3846 101.955
159 80 1 98.1927 102.151 101.426
160 80 1 98.0781 97.3048 101.032
161 81 2 98.4632 98.2439 99.4407
162 82 2 101.089 101.444 102.473
163 83 2 102.568 98.8551 100.269
164 84 2 100.212 102.956 101.096
165 85 2 100.753 97.938 101.095
166 86 2 100.071 102.798 99.0329
167 87 2 100.758 98.0671 99.922
168 88 2 97.7831 97.8593 101.918
169 89 2 101.159 99.9971 101.589
170 90 2 98.8048 101.227 102.233
171 91 2 97.4808 97.4462 99.9855
172 92 2 99.6643 99.7564 98.6936
173 93 2 99.7273 100.905 101.671
174 94 2 102.535 99.7973 97.8452
175 95 2 100.832 99.885 99.3137
176 96 2 103.034 98.8994 97.3552
177 97 2 101.46 100.212 97.5575
178 98 2 97.8762 98.8523 97.7951
179 99 2 99.1457 98.9971 100.639
180 100 2 98.3436 101.964 99.6213
181 101 2 101.984 101.496 101.171
182 102 2 97.2235 100.257 98.4821
183 103 2 102.609 100.997 100.452
184 104 2 99.503 100.382 97.8508
185 105 2 102.884 102.607 102.735
186 106 2 99.5452 100.862 100.221
187 107 2 102.03 97.7407 98.4704
188 108 2 100.009 100.587 99.2742
189 109 2 100.808 102.05 98.752
190 110 2 99.9218 98.5573 102.706
191 111 2 97.9669 98.9152 101.536
192 112 2 99.785 102.147 98.2688
193 113 2 101.11 98.031 98.0919
194 114 2 99.7693 102.774 102.14
195 115 2 102.588 102.045 97.7898
196 116 2 101.321 97.2422 97.353
197 117 2 97.907 100.965 101.717
198 118 2 97.3659 102.807 101.892
199 119 2 100.994 99.4248 102.426
200 120 2 101.758 100.413 102.489
ITEM: TIMESTEP
4000
ITEM: NUMBER OF ATOMS
200
ITEM: BOX BOUNDS pp pp pp
9.6895493263840024e+01 1.0310450673615998e+02
9.7017222714120251e+01 1.0298277728587975e+02
9.7017222714120251e+01 1.0298277728587975e+02
ITEM: ATOMS id mol type x y z
1 1 1 100.628 101.945 97.5868
2 1 1 99.5051 101.473 97.4799
3 2 1 101.921 101.59 98.8809
4 2 1 96.94 101.707 98.7455
5 3 1 101.885 99.2129 97.2067
6 3 1 101.41 99.4092 98.2694
7 4 1 100.126 98.8249 101.651
8 4 1 99.765 97.9885 100.855
9 5 1 102.46 97.7599 100.688
10 5 1 101.58 98.5114 100.384
11 6 1 97.3683 98.5019 99.9081
12 6 1 97.5849 98.2721 98.7561
13 7 1 97.6225 99.8775 102.488
14 7 1 102.626 99.7644 102.622
15 8 1 102.509 99.8251 99.0584
16 8 1 101.631 100.448 98.5532
17 9 1 101.905 99.4714 100.806
18 9 1 102.701 98.7517 101.354
19 10 1 97.0304 99.1577 98.4353
20 10 1 97.1742 99.5036 99.595
21 11 1 101.342 101.299 97.9979
22 11 1 102.536 100.913 98.2581
23 12 1 99.546 98.32 99.8548
24 12 1 100.297 98.8986 100.571
25 13 1 100.538 97.0647 97.9774
26 13 1 101.584 102.54 98.1058
27 14 1 99.2077 97.5391 99.1919
28 14 1 99.3398 102.477 99.8461
29 15 1 98.9693 102.506 98.8359
30 15 1 98.039 97.2666 98.8937
31 16 1 100.635 101.922 99.8215
32 16 1 101.014 101.043 99.1184
33 17 1 100.903 101.191 101.363
34 17 1 99.9675 101.69 100.782
35 18 1 99.1752 102.919 100.887
36 18 1 98.4986 97.1687 99.9997
37 19 1 99.5346 97.3073 98.2009
38 19 1 99.1074 97.3925 103.049
39 20 1 101.868 97.6724 99.7537
40 20 1 101.183 97.2304 98.8529
41 21 1 101.77 100.49 99.6468
42 21 1 100.704 100.867 100.179
43 22 1 101.711 99.4216 99.6504
44 22 1 102.568 98.6688 99.1826
45 23 1 98.7441 100.172 101.984
46 23 1 99.9268 99.8303 101.955
47 24 1 101.019 102.116 100.835
48 24 1 101.511 102.293 101.926
49 25 1 97.8829 101.172 98.9482
50 25 1 98.9687 100.627 99.1317
51 26 1 99.2647 102.053 101.598
52 26 1 98.8808 101.873 100.52
53 27 1 101.089 98.9767 101.272
54 27 1 100.931 99.7426 100.358
55 28 1 97.9641 102.173 98.5011
56 28 1 97.5618 101.228 97.9269
57 29 1 102.93 101.979 100.721
58 29 1 97.3152 101.512 99.8138
59 30 1 99.0428 99.2565 99.4695
60 30 1 100.22 99.0329 99.4685
61 31 1 99.875 99.8282 100.084
62 31 1 99.2503 99.9988 101.087
63 32 1 98.3158 100.48 98.1939
64 32 1 98.0813 100.084 99.319
65 33 1 100.292 97.5529 102.876
66 33 1 99.733 102.556 97.3248
67 34 1 97.2239 99.3009 100.711
68 34 1 102.557 99.9613 100.157
69 35 1 102.976 100.695 102.172
70 35 1 103.043 100.618 97.4017
71 36 1 98.158 99.1923 98.7494
72 36 1 98.5868 98.1135 98.345
73 37 1 102.177 101.409 102.206
74 37 1 97.0635 101.688 101.735
75 38 1 99.9188 97.8195 101.931
76 38 1 101.016 98.229 102.261
77 39 1 97.7333 102.331 100.497
78 39 1 97.3039 102.497 99.3637
79 40 1 101.737 97.2236 101.304
80 40 1 101.086 97.1162 100.327
81 41 1 102.034 97.3098 102.408
82 41 1 102.116 98.1089 97.3968
83 42 1 100.552 98.8806 98.4815
84 42 1 100.495 100.074 98.2082
85 43 1 97.5273 99.8567 97.6152
86 43 1 98.5459 100.319 97.1436
87 44 1 102.262 98.7918 98.1757
88 44 1 101.471 98.4673 99.064
89 45 1 98.1394 99.9799 100.925
90 45 1 97.0344 100.437 101.037
91 46 1 99.8668 101.63 102.508
92 46 1 100.406 100.86 97.3334
93 47 1 103.23 103.01 100.965
94 47 1 97.2726 98.1765 100.921
95 48 1 102.851 97.6747 101.727
96 48 1 102.346 98.5707 102.376
97 49 1 102.568 101.92 99.6842
98 49 1 101.572 102.525 99.535