ITEM: TIMESTEP
0
ITEM: NUMBER OF ATOMS
200
ITEM: BOX BOUNDS pp pp pp
9.7017222714120251e+01 1.0298277728587975e+02
9.7017222714120251e+01 1.0298277728587975e+02
9.7017222714120251e+01 1.0298277728587975e+02
ITEM: ATOMS id mol type x y z
1 1 1 100.616 102.018 97.6255
2 1 1 99.5473 101.522 97.5031
3 2 1 101.853 101.553 98.8827
4 2 1 97.0319 101.785 98.6964
5 3 1 101.767 99.1472 97.1866
6 3 1 101.404 99.4826 98.2643
7 4 1 99.9787 98.7942 101.489
8 4 1 99.6554 97.8849 100.794
9 5 1 102.335 97.81 100.689
10 5 1 101.482 98.6209 100.471
11 6 1 97.4917 98.4992 99.9719
12 6 1 97.6826 98.3428 98.8473
13 7 1 97.8216 99.8872 102.306
14 7 1 102.675 99.6465 102.71
15 8 1 102.368 99.8056 98.9862
16 8 1 101.5 100.483 98.5851
17 9 1 101.939 99.5306 100.913
18 9 1 102.646 98.7007 101.387
19 10 1 97.1345 99.1754 98.3961
20 10 1 97.2861 99.433 99.4863
21 11 1 101.307 101.328 98.0011
22 11 1 102.418 100.892 98.2288
23 12 1 99.5849 98.2866 99.8019
24 12 1 100.348 98.8623 100.49
25 13 1 100.482 97.1685 97.9817
26 13 1 101.522 102.535 98.0965
27 14 1 99.198 97.5179 99.2092
28 14 1 99.4282 102.478 99.8478
29 15 1 99.0425 102.551 98.797
30 15 1 98.0847 97.3295 98.9806
31 16 1 100.442 101.999 99.7805
32 16 1 100.89 101.115 99.1397
33 17 1 100.807 101.203 101.382
34 17 1 99.9386 101.726 100.788
35 18 1 99.1325 102.821 100.917
36 18 1 98.553 97.1227 99.9548
37 19 1 99.3709 97.3775 98.1293
38 19 1 99.0366 97.3552 102.954
39 20 1 101.912 97.8641 99.6874
40 20 1 101.17 97.3001 98.8781
41 21 1 101.663 100.545 99.6818
42 21 1 100.643 101.039 100.178
43 22 1 101.591 99.3194 99.6315
44 22 1 102.511 98.6649 99.1959
45 23 1 98.8366 100.175 101.985
46 23 1 100.018 99.8013 101.987
47 24 1 100.965 102.081 100.756
48 24 1 101.382 102.279 101.826
49 25 1 97.9266 101.136 98.8697
50 25 1 99.0048 100.63 98.9939
51 26 1 99.3054 101.999 101.614
52 26 1 98.8329 101.805 100.525
53 27 1 101.036 99.0158 101.361
54 27 1 100.985 99.7151 100.418
55 28 1 98.059 102.165 98.4742
56 28 1 97.5446 101.282 97.8378
57 29 1 102.868 101.908 100.746
58 29 1 97.4784 101.476 99.7821
59 30 1 99.1116 99.2988 99.4868
60 30 1 100.268 98.9962 99.4209
61 31 1 99.9443 99.806 100.108
62 31 1 99.3891 99.89 101.139
63 32 1 98.3751 100.547 98.1217
64 32 1 98.1116 100.091 99.2311
65 33 1 100.227 97.5657 102.821
66 33 1 99.7608 102.602 97.3289
67 34 1 97.3459 99.338 100.663
68 34 1 102.479 99.9299 100.089
69 35 1 102.889 100.609 102.171
70 35 1 102.894 100.591 97.3473
71 36 1 98.2912 99.1874 98.767
72 36 1 98.6079 98.0783 98.4243
73 37 1 102.104 101.534 102.257
74 37 1 97.1964 101.672 101.745
75 38 1 99.8163 97.8477 101.859
76 38 1 100.876 98.3683 102.213
77 39 1 97.8644 102.338 100.449
78 39 1 97.4374 102.503 99.3709
79 40 1 101.709 97.1861 101.299
80 40 1 101.053 97.1231 100.356
81 41 1 101.926 97.3584 102.389
82 41 1 102.034 98.0711 97.3704
83 42 1 100.503 98.9416 98.4051
84 42 1 100.501 100.169 98.2881
85 43 1 97.6175 99.8004 97.4274
86 43 1 98.6943 100.331 97.0992
87 44 1 102.135 98.7685 98.1638
88 44 1 101.324 98.4748 98.9928
89 45 1 98.2454 99.909 101.156
90 45 1 97.2606 100.572 101.119
91 46 1 99.8673 101.695 102.495
92 46 1 100.464 100.971 97.3249
93 47 1 102.955 102.948 100.911
94 47 1 97.4217 98.0916 100.949
95 48 1 102.682 97.6251 101.658
96 48 1 102.177 98.4448 102.384
97 49 1 102.484 101.904 99.684
98 49 1 101.528 102.555 99.5755
99 50 1 98.8708 100.066 100.244
100 50 1 98.8658 100.911 101.106
101 51 1 100.064 97.3105 99.9541
102 51 1 100.302 97.9466 98.929
103 52 1 98.7334 99.5816 97.8669
104 52 1 99.3321 99.5552 102.792
105 53 1 97.6178 102.25 97.4759
106 53 1 98.0915 97.3023 97.9137
107 54 1 100.325 100.368 101.033
108 54 1 100.595 100.628 102.249
109 55 1 97.971 101.949 102.435
110 55 1 97.8088 100.837 102.779
111 56 1 102.409 97.1037 97.6685
112 56 1 102.311 102.582 98.8128
113 57 1 97.9998 102.978 102.766
114 57 1 102.968 97.6615 102.722
115 58 1 98.3834 98.1846 100.481
116 58 1 98.2218 99.2776 99.9909
117 59 1 98.8491 98.2204 102.4
118 59 1 98.6882 97.1226 101.939
119 60 1 98.2955 99.1012 102.764
120 60 1 98.9972 98.4009 97.4674
121 61 1 97.5718 100.324 100.12
122 61 1 102.735 100.791 99.3385
123 62 1 100.396 102.099 101.733
124 62 1 100.843 97.2488 101.92
125 63 1 100.745 98.885 97.3639
126 63 1 99.6661 99.1582 97.7621
127 64 1 99.5494 101.588 99.289
128 64 1 100.206 101.203 98.3444
129 65 1 99.0556 99.1289 101.831
130 65 1 98.8253 98.0301 101.369
131 66 1 97.0282 97.5938 99.0604
132 66 1 102.526 102.943 99.8857
133 67 1 101.537 101.604 100.013
134 67 1 101.444 100.627 100.718
135 68 1 102.412 102.427 101.715
136 68 1 101.967 102.457 100.586
137 69 1 97.2666 98.7864 102.279
138 69 1 97.9494 98.0424 102.982
139 70 1 101.692 102.205 97.079
140 70 1 100.614 102.487 102.652
141 71 1 97.8685 101.351 100.762
142 71 1 98.4603 100.967 99.8535
143 72 1 100.014 98.1342 97.745
144 72 1 99.4564 98.5916 98.7312
145 73 1 100.323 99.8587 97.2719
146 73 1 99.6638 100.625 102.722
147 74 1 101.968 101.11 97.2648
148 74 1 102.98 101.552 102.823
149 75 1 98.7815 102.429 97.7837
150 75 1 98.9881 102.275 102.6
151 76 1 98.924 101.463 98.3918
152 76 1 98.4614 101.499 97.3237
153 77 1 97.1089 97.964 97.9651
154 77 1 97.2538 102.792 98.3167
155 78 1 102.982 99.6556 101.647
156 78 1 102.187 100.466 101.401
157 79 1 101.694 98.233 101.492
158 79 1 101.962 99.3592 101.949
159 80 1 98.2665 102.085 101.453
160 80 1 98.1056 97.2351 101.018
161 81 2 98.5445 98.2825 99.4682
162 82 2 101.053 101.469 102.548
163 83 2 102.484 98.8598 100.222
164 84 2 100.174 102.932 101.115
165 85 2 100.728 97.8943 101.093
166 86 2 100.085 102.819 99.0043
167 87 2 100.747 98.0616 99.9367
168 88 2 97.8802 97.8392 101.939
169 89 2 101.153 100.063 101.576
170 90 2 98.8637 101.216 102.243
171 91 2 97.5421 97.4529 99.9874
172 92 2 99.6824 99.751 98.7198
173 93 2 99.75 100.903 101.677
174 94 2 102.417 99.8205 97.8317
175 95 2 100.776 99.8975 99.2439
176 96 2 102.939 98.786 97.3022
177 97 2 101.325 100.276 97.5132
178 98 2 97.977 98.8357 97.8241
179 99 2 99.1383 98.9732 100.708
180 100 2 98.3811 101.99 99.5733
181 101 2 101.815 101.528 101.164
182 102 2 97.3132 100.256 98.3715
183 103 2 102.506 100.961 100.402
184 104 2 99.5603 100.403 97.8449
185 105 2 102.784 102.592 102.739
186 106 2 99.5735 100.907 100.238
187 107 2 102.051 97.7303 98.4675
188 108 2 99.9924 100.591 99.3122
189 109 2 100.8 102.082 98.7858
190 110 2 99.9337 98.5798 102.7
191 111 2 98.0398 98.9374 101.574
192 112 2 99.855 102.163 98.2782
193 113 2 101.137 98.0527 98.0614
194 114 2 99.7656 102.822 102.153
195 115 2 102.513 101.995 97.8063
196 116 2 101.28 97.247 97.3075
197 117 2 98.0075 100.915 101.748
198 118 2 97.4119 102.793 101.887
199 119 2 100.979 99.4877 102.44
200 120 2 101.766 100.414 102.429
ITEM: TIMESTEP
1000
ITEM: NUMBER OF ATOMS
200
ITEM: BOX BOUNDS pp pp pp
9.6987245304022295e+01 1.0301275469597770e+02
9.7017222714120251e+01 1.0298277728587975e+02
9.7017222714120251e+01 1.0298277728587975e+02
ITEM: ATOMS id mol type x y z
1 1 1 100.574 101.932 97.5766
2 1 1 99.437 101.496 97.4703
3 2 1 101.841 101.577 98.9702
4 2 1 97.0127 101.678 98.8047
5 3 1 101.821 99.0836 97.2512
6 3 1 101.449 99.5109 98.3311
7 4 1 99.9688 98.8161 101.536
8 4 1 99.7074 97.9617 100.775
9 5 1 102.285 97.7449 100.676
10 5 1 101.458 98.6024 100.473
11 6 1 97.4525 98.5099 99.9262
12 6 1 97.6784 98.323 98.8123
13 7 1 97.7904 99.8892 102.245
14 7 1 102.702 99.6856 102.663
15 8 1 102.395 99.7586 98.917
16 8 1 101.545 100.511 98.5853
17 9 1 101.952 99.483 100.885
18 9 1 102.66 98.7071 101.399
19 10 1 97.2114 99.2437 98.4182
20 10 1 97.1897 99.4509 99.5412
21 11 1 101.353 101.349 98.0199
22 11 1 102.458 100.889 98.2499
23 12 1 99.5396 98.3437 99.7843
24 12 1 100.344 98.8545 100.498
25 13 1 100.499 97.1221 98.0355
26 13 1 101.532 102.523 98.0801
27 14 1 99.2056 97.4921 99.2244
28 14 1 99.4358 102.479 99.9373
29 15 1 98.9954 102.502 98.8613
30 15 1 98.0814 97.2886 98.987
31 16 1 100.548 102.052 99.8634
32 16 1 100.89 101.134 99.1109
33 17 1 100.876 101.194 101.368
34 17 1 99.979 101.712 100.742
35 18 1 99.0998 102.835 100.958
36 18 1 98.5367 97.1811 99.9804
37 19 1 99.3696 97.3483 98.1677
38 19 1 98.984 97.3337 103.01
39 20 1 101.9 97.8596 99.6255
40 20 1 101.174 97.3132 98.9046
41 21 1 101.728 100.576 99.6191
42 21 1 100.709 101.022 100.142
43 22 1 101.677 99.3191 99.6246
44 22 1 102.56 98.5876 99.2138
45 23 1 98.872 100.194 101.985
46 23 1 100.032 99.7829 101.974
47 24 1 100.992 102.117 100.837
48 24 1 101.446 102.321 101.934
49 25 1 97.9582 101.145 98.9247
50 25 1 99.0403 100.642 98.9672
51 26 1 99.3066 102.003 101.582
52 26 1 98.8322 101.739 100.525
53 27 1 101.014 99.0615 101.334
54 27 1 101.033 99.7578 100.367
55 28 1 98.0311 102.146 98.5314
56 28 1 97.4972 101.311 97.8977
57 29 1 102.909 101.901 100.675
58 29 1 97.4641 101.419 99.8386
59 30 1 99.1499 99.3453 99.4224
60 30 1 100.291 98.9993 99.4028
61 31 1 99.9227 99.7911 100.099
62 31 1 99.3479 99.9257 101.116
63 32 1 98.3601 100.609 98.1023
64 32 1 98.1569 100.105 99.205
65 33 1 100.235 97.5933 102.893
66 33 1 99.754 102.606 97.3186
67 34 1 97.3361 99.3363 100.656
68 34 1 102.479 99.953 100.116
69 35 1 102.897 100.696 102.138
70 35 1 102.915 100.587 97.3397
71 36 1 98.3104 99.1892 98.7381
72 36 1 98.6317 98.0643 98.4162
73 37 1 102.096 101.574 102.276
74 37 1 97.087 101.728 101.708
75 38 1 99.8311 97.8369 101.863
76 38 1 100.819 98.4198 102.17
77 39 1 97.8766 102.384 100.495
78 39 1 97.4064 102.487 99.4211
79 40 1 101.644 97.2343 101.332
80 40 1 101.089 97.1844 100.315
81 41 1 101.958 97.3246 102.435
82 41 1 102.176 98.0958 97.4065
83 42 1 100.533 98.9369 98.3158
84 42 1 100.575 100.17 98.2363
85 43 1 97.6054 99.7832 97.4318
86 43 1 98.6316 100.392 97.1043
87 44 1 102.256 98.7976 98.2321
88 44 1 101.338 98.5487 98.9666
89 45 1 98.2031 99.8944 101.185
90 45 1 97.201 100.576 101.051
91 46 1 99.9237 101.59 102.526
92 46 1 100.518 100.88 97.3433
93 47 1 103.017 102.903 100.929
94 47 1 97.2651 98.0653 100.879
95 48 1 102.69 97.6276 101.688
96 48 1 102.302 98.4987 102.41
97 49 1 102.542 101.927 99.6786
98 49 1 101.539 102.526 99.5542
99 50 1 98.8412 100.058 100.211
100 50 1 98.8417 100.863 101.117
101 51 1 100.011 97.374 99.9895
102 51 1 100.243 97.9216 98.9265
103 52 1 98.6778 99.6038 97.847
104 52 1 99.2106 99.5324 102.773
105 53 1 97.5456 102.303 97.5188
106 53 1 98.0575 97.3499 97.8475
107 54 1 100.319 100.349 101.024
108 54 1 100.604 100.652 102.203
109 55 1 97.9094 101.957 102.465
110 55 1 97.7473 100.825 102.797
111 56 1 102.405 97.0692 97.6644
112 56 1 102.316 102.569 98.791
113 57 1 97.9958 102.96 102.787
114 57 1 103.008 97.6578 102.711
115 58 1 98.2731 98.2239 100.496
116 58 1 98.2132 99.2616 99.9212
117 59 1 98.8062 98.1743 102.336
118 59 1 98.6171 97.0572 101.943
119 60 1 98.2411 99.0284 102.648
120 60 1 98.9334 98.3568 97.4507
121 61 1 97.5068 100.347 100.069
122 61 1 102.733 100.817 99.3336
123 62 1 100.424 102.125 101.742
124 62 1 100.81 97.2968 101.954
125 63 1 100.731 98.7459 97.2839
126 63 1 99.6629 99.1597 97.7158
127 64 1 99.5812 101.598 99.3006
128 64 1 100.18 101.207 98.3119
129 65 1 98.9642 99.1159 101.76
130 65 1 98.7836 98.0076 101.335
131 66 1 97.0124 97.5837 99.0676
132 66 1 102.547 102.956 99.9211
133 67 1 101.621 101.568 100.041
134 67 1 101.498 100.62 100.701
135 68 1 102.421 102.519 101.733
136 68 1 101.992 102.448 100.634
137 69 1 97.2368 98.767 102.315
138 69 1 97.9526 98.0308 102.982
139 70 1 101.767 102.308 97.0896
140 70 1 100.652 102.515 102.689
141 71 1 97.8506 101.353 100.805
142 71 1 98.4755 100.962 99.8641
143 72 1 99.9851 98.1474 97.8159
144 72 1 99.4282 98.5959 98.7715
145 73 1 100.346 99.8063 97.2434
146 73 1 99.6274 100.569 102.697
147 74 1 102.029 101.107 97.2788
148 74 1 103.021 101.56 102.819
149 75 1 98.742 102.457 97.8078
150 75 1 98.9707 102.248 102.647
151 76 1 98.8684 101.503 98.389
152 76 1 98.363 101.491 97.3346
153 77 1 97.0747 97.9741 97.9721
154 77 1 97.2151 102.795 98.3504
155 78 1 103.032 99.6778 101.636
156 78 1 102.181 100.394 101.43
157 79 1 101.723 98.2712 101.538
158 79 1 102.015 99.3969 101.905
159 80 1 98.233 102.113 101.438
160 80 1 98.0802 97.2875 101.013
161 81 2 98.5268 98.3004 99.4676
162 82 2 101.077 101.477 102.595
163 83 2 102.495 98.8214 100.226
164 84 2 100.195 102.942 101.118
165 85 2 100.691 97.9551 101.095
166 86 2 100.083 102.804 99.0569
167 87 2 100.736 98.0612 99.8638
168 88 2 97.8136 97.818 101.939
169 89 2 101.179 100.05 101.543
170 90 2 98.8258 101.25 102.228
171 91 2 97.4879 97.4603 100.005
172 92 2 99.7232 99.7169 98.6619
173 93 2 99.7492 100.91 101.676
174 94 2 102.474 99.7359 97.7639
175 95 2 100.82 99.8913 99.2665
176 96 2 102.995 98.83 97.3378
177 97 2 101.409 100.134 97.4573
178 98 2 97.9395 98.8362 97.7942
179 99 2 99.1513 98.9695 100.62
180 100 2 98.3667 101.99 99.6386
181 101 2 101.895 101.566 101.199
182 102 2 97.2491 100.26 98.4525
183 103 2 102.526 100.979 100.397
184 104 2 99.538 100.403 97.8382
185 105 2 102.84 102.575 102.737
186 106 2 99.6097 100.872 100.209
187 107 2 102.068 97.7135 98.5197
188 108 2 100.039 100.568 99.2433
189 109 2 100.806 102.134 98.7143
190 110 2 99.8505 98.5806 102.665
191 111 2 97.9432 98.8457 101.481
192 112 2 99.8202 102.183 98.2843
193 113 2 101.147 98.0387 98.112
194 114 2 99.7617 102.811 102.173
195 115 2 102.531 101.991 97.8436
196 116 2 101.305 97.3267 97.3218
197 117 2 97.9295 100.926 101.739
198 118 2 97.4242 102.814 101.89
199 119 2 101.136 99.4518 102.459
200 120 2 101.766 100.417 102.438
ITEM: TIMESTEP
2000
ITEM: NUMBER OF ATOMS
200
ITEM: BOX BOUNDS pp pp pp
9.6956966615944111e+01 1.0304303338405589e+02
9.7017222714120251e+01 1.0298277728587975e+02
9.7017222714120251e+01 1.0298277728587975e+02
ITEM: ATOMS id mol type x y z
1 1 1 100.577 101.924 97.5875
2 1 1 99.4725 101.492 97.5054
3 2 1 101.852 101.499 98.9592
4 2 1 96.9385 101.664 98.8004
5 3 1 101.818 99.2424 97.2266
6 3 1 101.45 99.4596 98.3522
7 4 1 100.031 98.8487 101.476
8 4 1 99.6803 97.8958 100.824
9 5 1 102.321 97.7881 100.642
10 5 1 101.502 98.637 100.408
11 6 1 97.3691 98.4825 99.8857
12 6 1 97.6815 98.3035 98.7979
13 7 1 97.8008 99.8536 102.315
14 7 1 102.729 99.7412 102.66
15 8 1 102.494 99.7669 98.9819
16 8 1 101.603 100.454 98.6326
17 9 1 101.93 99.517 100.833
18 9 1 102.68 98.7386 101.388
19 10 1 97.1016 99.1273 98.4451
20 10 1 97.23 99.4671 99.5363
21 11 1 101.324 101.253 98.032
22 11 1 102.491 100.88 98.2927
23 12 1 99.5554 98.3249 99.8244
24 12 1 100.343 98.8437 100.502
25 13 1 100.52 97.0347 98.022
26 13 1 101.573 102.384 98.0709
27 14 1 99.2268 97.5112 99.199
28 14 1 99.3722 102.443 99.9117
29 15 1 99.0029 102.525 98.8799
30 15 1 98.0403 97.3325 98.9624
31 16 1 100.42 101.942 99.8225
32 16 1 100.897 101.078 99.1086
33 17 1 100.952 101.234 101.427
34 17 1 99.976 101.713 100.825
35 18 1 99.0925 102.882 100.946
36 18 1 98.5283 97.1949 99.9379
37 19 1 99.434 97.2559 98.1478
38 19 1 99.0295 97.3241 103.002
39 20 1 101.895 97.8559 99.6275
40 20 1 101.215 97.2883 98.8641
41 21 1 101.727 100.519 99.6996
42 21 1 100.655 100.887 100.179
43 22 1 101.72 99.3598 99.6039
44 22 1 102.571 98.6403 99.1728
45 23 1 98.8166 100.157 102.012
46 23 1 100.008 99.8278 102.029
47 24 1 100.99 102.112 100.754
48 24 1 101.445 102.322 101.856
49 25 1 97.9117 101.093 98.906
50 25 1 98.9762 100.615 99.0535
51 26 1 99.3234 102.067 101.599
52 26 1 98.845 101.779 100.573
53 27 1 101.05 99.0345 101.311
54 27 1 100.999 99.7471 100.375
55 28 1 97.9065 102.143 98.5375
56 28 1 97.4568 101.234 97.8854
57 29 1 102.917 101.946 100.643
58 29 1 97.4427 101.413 99.8204
59 30 1 99.1027 99.345 99.4778
60 30 1 100.23 98.9989 99.4182
61 31 1 99.9129 99.7914 100.155
62 31 1 99.344 99.9097 101.149
63 32 1 98.3317 100.432 98.1246
64 32 1 98.1307 100.063 99.2661
65 33 1 100.224 97.5855 102.861
66 33 1 99.7593 102.54 97.338
67 34 1 97.3308 99.3224 100.68
68 34 1 102.551 99.9821 100.115
69 35 1 102.926 100.729 102.107
70 35 1 102.879 100.623 97.3195
71 36 1 98.3577 99.1492 98.7202
72 36 1 98.604 98.0621 98.3368
73 37 1 102.125 101.518 102.203
74 37 1 97.075 101.699 101.674
75 38 1 99.9223 97.8517 101.876
76 38 1 100.982 98.3588 102.228
77 39 1 97.8666 102.374 100.444
78 39 1 97.3253 102.532 99.4243
79 40 1 101.723 97.2361 101.303
80 40 1 101.044 97.1445 100.326
81 41 1 102.001 97.3459 102.408
82 41 1 102.181 98.0756 97.382
83 42 1 100.531 98.985 98.4063
84 42 1 100.566 100.206 98.2747
85 43 1 97.6008 99.8621 97.4857
86 43 1 98.6237 100.318 97.0529
87 44 1 102.211 98.785 98.204
88 44 1 101.367 98.5857 99.0039
89 45 1 98.1773 99.9413 101.073
90 45 1 97.1656 100.562 101.104
91 46 1 99.8846 101.667 102.556
92 46 1 100.428 100.908 97.3879
93 47 1 103.023 102.972 100.893
94 47 1 97.2828 98.1223 100.879
95 48 1 102.734 97.6557 101.692
96 48 1 102.236 98.4985 102.4
97 49 1 102.515 101.92 99.6728
98 49 1 101.5 102.509 99.5798
99 50 1 98.8538 100.043 100.222
100 50 1 98.8005 100.85 101.095
101 51 1 100.067 97.3022 99.9875
102 51 1 100.309 97.9603 98.9484
103 52 1 98.6869 99.4958 97.7816
104 52 1 99.2793 99.5409 102.767
105 53 1 97.6192 102.27 97.4943
106 53 1 97.9297 97.4213 97.8511
107 54 1 100.343 100.382 101.055
108 54 1 100.598 100.688 102.245
109 55 1 97.8726 101.945 102.376
110 55 1 97.7147 100.847 102.852
111 56 1 102.38 97.0436 97.6927
112 56 1 102.328 102.647 98.8593
113 57 1 97.9751 102.956 102.781
114 57 1 103.103 97.722 102.667
115 58 1 98.2688 98.2002 100.418
116 58 1 98.1756 99.2848 99.9696
117 59 1 98.9435 98.1398 102.327
118 59 1 98.583 97.0553 101.952
119 60 1 98.3372 99.0114 102.655
120 60 1 99.0539 98.4032 97.4292
121 61 1 97.4792 100.38 100.061
122 61 1 102.702 100.774 99.3385
123 62 1 100.426 102.114 101.761
124 62 1 100.867 97.2939 102
125 63 1 100.804 98.8457 97.3628
126 63 1 99.7118 99.1596 97.7126
127 64 1 99.4616 101.596 99.3206
128 64 1 100.118 101.188 98.3477
129 65 1 98.9915 99.1049 101.772
130 65 1 98.7282 98.019 101.315
131 66 1 96.9338 97.6557 99.098
132 66 1 102.515 102.96 99.8735
133 67 1 101.577 101.548 100.025
134 67 1 101.473 100.63 100.748
135 68 1 102.469 102.521 101.696
136 68 1 101.976 102.404 100.598
137 69 1 97.2529 98.7696 102.268
138 69 1 97.9988 98.0331 102.928
139 70 1 101.813 102.311 96.9679
140 70 1 100.643 102.529 102.7
141 71 1 97.7792 101.373 100.832
142 71 1 98.445 100.975 99.9065
143 72 1 100.032 98.102 97.8074
144 72 1 99.4461 98.6031 98.7471
145 73 1 100.377 99.8582 97.2827
146 73 1 99.6418 100.575 102.699
147 74 1 102.03 101.23 97.286
148 74 1 103.049 101.578 102.759
149 75 1 98.6785 102.463 97.812
150 75 1 98.9314 102.271 102.663
151 76 1 98.8422 101.47 98.418
152 76 1 98.4478 101.493 97.2635
153 77 1 97.0021 97.9776 97.9595
154 77 1 97.1548 102.837 98.3613
155 78 1 103.074 99.6586 101.666
156 78 1 102.209 100.406 101.414
157 79 1 101.793 98.2488 101.449
158 79 1 101.986 99.3733 101.893
159 80 1 98.2695 102.141 101.42
160 80 1 98.0486 97.2687 101.02
161 81 2 98.5104 98.2834 99.4489
162 82 2 101.034 101.538 102.657
163 83 2 102.551 98.8609 100.24
164 84 2 100.172 102.926 101.105
165 85 2 100.802 97.9811 101.102
166 86 2 100.125 102.783 99.0302
167 87 2 100.757 98.0665 99.8918
168 88 2 97.8047 97.8366 101.869
169 89 2 101.146 100.062 101.591
170 90 2 98.8206 101.227 102.196
171 91 2 97.4809 97.4397 99.9698
172 92 2 99.6537 99.7389 98.6716
173 93 2 99.7457 100.925 101.703
174 94 2 102.495 99.8091 97.8434
175 95 2 100.776 99.8619 99.2681
176 96 2 102.968 98.9127 97.3132
177 97 2 101.406 100.286 97.5334
178 98 2 97.8597 98.8188 97.7882
179 99 2 99.1304 98.9435 100.59
180 100 2 98.3404 101.983 99.6179
181 101 2 101.935 101.547 101.138
182 102 2 97.2402 100.186 98.5004
183 103 2 102.549 101.005 100.41
184 104 2 99.4721 100.355 97.8239
185 105 2 102.955 102.604 102.753
186 106 2 99.604 100.886 100.227
187 107 2 102.086 97.7643 98.5107
188 108 2 99.9892 100.523 99.2891
189 109 2 100.838 102.058 98.719
190 110 2 100.007 98.6086 102.643
191 111 2 97.9621 98.9465 101.497
192 112 2 99.7619 102.188 98.2867
193 113 2 101.166 98.0287 98.1099
194 114 2 99.7481 102.857 102.16
195 115 2 102.639 101.973 97.8209
196 116 2 101.311 97.3043 97.2844
197 117 2 97.9375 100.895 101.78
198 118 2 97.3943 102.81 101.877
199 119 2 101.072 99.4332 102.431
200 120 2 101.763 100.404 102.447
ITEM: TIMESTEP
3000
ITEM: NUMBER OF ATOMS
200
ITEM: BOX BOUNDS pp pp pp
9.6926383621991647e+01 1.0307361637800835e+02
9.7017222714120251e+01 1.0298277728587975e+02
9.7017222714120251e+01 1.0298277728587975e+02
ITEM: ATOMS id mol type x y z
1 1 1 100.6 101.916 97.6073
2 1 1 99.4503 101.472 97.5282
3 2 1 101.912 101.545 98.9545
4 2 1 96.96 101.657 98.7392
5 3 1 101.869 99.1338 97.2223
6 3 1 101.486 99.444 98.328
7 4 1 100.053 98.8166 101.504
8 4 1 99.7488 97.9091 100.785
9 5 1 102.482 97.823 100.657
10 5 1 101.577 98.5559 100.401
11 6 1 97.3744 98.5202 99.9194
12 6 1 97.5653 98.2441 98.7944
13 7 1 97.6796 99.9333 102.421
14 7 1 102.676 99.7418 102.647
15 8 1 102.46 99.83 99.0227
16 8 1 101.574 100.485 98.6103
17 9 1 101.987 99.5067 100.855
18 9 1 102.706 98.6894 101.369
19 10 1 97.0883 99.1782 98.4322
20 10 1 97.2028 99.5123 99.5626
21 11 1 101.407 101.334 98.0237
22 11 1 102.491 100.866 98.2168
23 12 1 99.537 98.3307 99.8114
24 12 1 100.404 98.8202 100.468
25 13 1 100.51 97.1072 97.9631
26 13 1 101.584 102.529 98.0651
27 14 1 99.1868 97.5539 99.2178
28 14 1 99.3286 102.509 99.8933
29 15 1 98.9596 102.567 98.8323
30 15 1 98.017 97.2673 98.9715
31 16 1 100.42 101.995 99.8326
32 16 1 100.885 101.108 99.1197
33 17 1 100.942 101.201 101.404
34 17 1 99.9812 101.684 100.872
35 18 1 99.1118 102.852 100.931
36 18 1 98.4841 97.2155 99.9454
37 19 1 99.463 97.317 98.1446
38 19 1 99.1494 97.4291 102.945
39 20 1 101.895 97.766 99.6919
40 20 1 101.124 97.2499 98.8704
41 21 1 101.697 100.554 99.6801
42 21 1 100.669 100.992 100.219
43 22 1 101.703 99.413 99.6607
44 22 1 102.579 98.6628 99.1757
45 23 1 98.8027 100.123 102.033
46 23 1 100.013 99.7906 102.015
47 24 1 100.951 102.073 100.769
48 24 1 101.478 102.3 101.804
49 25 1 97.9337 101.127 98.9082
50 25 1 98.9827 100.592 99.0774
51 26 1 99.2362 101.987 101.622
52 26 1 98.8327 101.775 100.525
53 27 1 101.089 99.0123 101.272
54 27 1 100.923 99.7321 100.36
55 28 1 97.9307 102.169 98.4785
56 28 1 97.5138 101.221 97.8891
57 29 1 102.993 102.003 100.691
58 29 1 97.4129 101.502 99.7575
59 30 1 99.0904 99.2801 99.4707
60 30 1 100.268 98.9704 99.3715
61 31 1 99.9074 99.6926 100.081
62 31 1 99.3766 99.9319 101.102
63 32 1 98.3147 100.487 98.1789
64 32 1 98.0623 100.103 99.3129
65 33 1 100.217 97.5615 102.832
66 33 1 99.7408 102.549 97.3042
67 34 1 97.2812 99.3208 100.681
68 34 1 102.556 100.008 100.157
69 35 1 102.952 100.687 102.152
70 35 1 103.012 100.569 97.343
71 36 1 98.2091 99.1813 98.7515
72 36 1 98.5679 98.0399 98.4147
73 37 1 102.175 101.443 102.173
74 37 1 97.0928 101.683 101.713
75 38 1 99.8105 97.865 101.876
76 38 1 100.882 98.2904 102.212
77 39 1 97.8265 102.393 100.448
78 39 1 97.286 102.51 99.3468
79 40 1 101.786 97.247 101.294
80 40 1 101.106 97.1399 100.374
81 41 1 102.011 97.4035 102.371
82 41 1 102.172 98.0745 97.3665
83 42 1 100.546 98.9205 98.3442
84 42 1 100.523 100.181 98.2203
85 43 1 97.5712 99.7734 97.547
86 43 1 98.5652 100.351 97.1629
87 44 1 102.247 98.7134 98.1617
88 44 1 101.411 98.5235 99.0088
89 45 1 98.1501 99.9315 101.015
90 45 1 97.0782 100.488 101.113
91 46 1 99.8698 101.649 102.533
92 46 1 100.423 100.912 97.3148
93 47 1 103.151 102.995 100.976
94 47 1 97.3713 98.1453 100.927
95 48 1 102.831 97.672 101.715
96 48 1 102.367 98.5003 102.412
97 49 1 102.617 101.947 99.6809
98 49 1 101.605 102.564 99.5628
99 50 1 98.8548 100.043 100.193
100 50 1 98.7983 100.852 101.1
101 51 1 100.06 97.2712 100.005
102 51 1 100.263 97.8631 98.9148
103 52 1 98.6719 99.51 97.8618
104 52 1 99.2696 99.5457 102.811
105 53 1 97.5224 102.25 97.4836
106 53 1 97.9998 97.3493 97.846
107 54 1 100.297 100.39 101.069
108 54 1 100.53 100.633 102.23
109 55 1 97.8083 102.008 102.424
110 55 1 97.7446 100.905 102.833
111 56 1 102.445 97.0925 97.6847
112 56 1 102.381 102.519 98.773
113 57 1 97.9884 103.001 102.812
114 57 1 103.123 97.7104 102.776
115 58 1 98.3244 98.2163 100.497
116 58 1 98.158 99.2409 99.9805
117 59 1 98.8213 98.2517 102.358
118 59 1 98.6318 97.1113 101.926
119 60 1 98.2801 99.1339 102.748
120 60 1 99.0051 98.4406 97.4619
121 61 1 97.4561 100.462 100.127
122 61 1 102.754 100.853 99.3343
123 62 1 100.434 102.095 101.76
124 62 1 100.898 97.2533 101.963
125 63 1 100.782 98.8043 97.2743
126 63 1 99.7137 99.1736 97.7393
127 64 1 99.5146 101.603 99.2756
128 64 1 100.188 101.23 98.3167
129 65 1 99.0554 99.1206 101.774
130 65 1 98.8547 98.0059 101.348
131 66 1 96.8848 97.5201 99.0608
132 66 1 102.604 102.978 99.9736
133 67 1 101.57 101.568 99.9931
134 67 1 101.572 100.589 100.691
135 68 1 102.523 102.467 101.675
136 68 1 102.01 102.429 100.609
137 69 1 97.2168 98.7794 102.307
138 69 1 97.9645 98.0814 102.953
139 70 1 101.765 102.221 96.9757
140 70 1 100.639 102.497 102.705
141 71 1 97.7669 101.292 100.821
142 71 1 98.4193 100.987 99.889
143 72 1 100.06 98.1161 97.7806
144 72 1 99.4632 98.5792 98.7093
145 73 1 100.309 99.8298 97.1865
146 73 1 99.5607 100.606 102.78
147 74 1 102.047 101.104 97.2132
148 74 1 103.074 101.548 102.849
149 75 1 98.7355 102.531 97.7918
150 75 1 98.8691 102.31 102.627
151 76 1 98.8109 101.521 98.4353
152 76 1 98.407 101.605 97.3377
153 77 1 97.0182 97.9884 97.8731
154 77 1 97.1367 102.829 98.2763
155 78 1 103.141 99.62 101.665
156 78 1 102.235 100.39 101.46
157 79 1 101.748 98.2354 101.584
158 79 1 102.023 99.3717 101.872
159 80 1 98.2016 102.144 101.416
160 80 1 98.0614 97.3278 100.994
161 81 2 98.4371 98.2624 99.4583
162 82 2 101.09 101.474 102.574
163 83 2 102.558 98.9065 100.178
164 84 2 100.219 102.946 101.144
165 85 2 100.775 97.9875 101.06
166 86 2 100.061 102.749 99.0457
167 87 2 100.752 98.0452 99.8906
168 88 2 97.8297 97.8799 101.904
169 89 2 101.149 100.037 101.543
170 90 2 98.7158 101.23 102.33
171 91 2 97.4866 97.4953 99.9854
172 92 2 99.6923 99.7161 98.7076
173 93 2 99.6483 100.909 101.723
174 94 2 102.528 99.7598 97.8236
175 95 2 100.82 99.9197 99.2663
176 96 2 103.048 98.8896 97.3239
177 97 2 101.396 100.279 97.495
178 98 2 97.8828 98.7991 97.7915
179 99 2 99.1935 98.9692 100.595
180 100 2 98.3002 102.016 99.6012
181 101 2 101.966 101.53 101.124
182 102 2 97.2386 100.235 98.4862
183 103 2 102.613 101.039 100.383
184 104 2 99.4724 100.356 97.8524
185 105 2 102.886 102.587 102.751
186 106 2 99.5571 100.916 100.23
187 107 2 102.073 97.7307 98.5213
188 108 2 99.9928 100.592 99.2766
189 109 2 100.863 102.094 98.7595
190 110 2 99.9131 98.5902 102.629
191 111 2 98.0076 98.8924 101.595
192 112 2 99.7677 102.185 98.2661
193 113 2 101.173 97.9866 98.0763
194 114 2 99.7587 102.793 102.128
195 115 2 102.543 101.965 97.815
196 116 2 101.33 97.2626 97.2342
197 117 2 97.9102 100.855 101.765
198 118 2 97.4011 102.889 101.926
199 119 2 101.055 99.4303 102.379
200 120 2 101.661 100.372 102.439
ITEM: TIMESTEP
4000
ITEM: NUMBER OF ATOMS
200
ITEM: BOX BOUNDS pp pp pp
9.6895493263840024e+01 1.0310450673615998e+02
9.7017222714120251e+01 1.0298277728587975e+02
9.7017222714120251e+01 1.0298277728587975e+02
ITEM: ATOMS id mol type x y z
1 1 1 100.612 101.958 97.5872
2 1 1 99.4398 101.486 97.5049
3 2 1 101.886 101.645 98.8793
4 2 1 96.8956 101.716 98.7727
5 3 1 101.881 99.1511 97.1743
6 3 1 101.41 99.373 98.2883
7 4 1 100.176 98.8064 101.627
8 4 1 99.7772 98.0125 100.821
9 5 1 102.558 97.8564 100.624
10 5 1 101.568 98.5477 100.399
11 6 1 97.2833 98.5018 99.8584
12 6 1 97.5554 98.2243 98.758
13 7 1 97.6838 99.9292 102.405
14 7 1 102.721 99.7964 102.706
15 8 1 102.551 99.7785 99.033
16 8 1 101.622 100.371 98.5639
17 9 1 102.002 99.5193 100.867
18 9 1 102.716 98.6573 101.364
19 10 1 97.0504 99.1423 98.4802
20 10 1 97.2007 99.5566 99.5472
21 11 1 101.327 101.252 98.036
22 11 1 102.482 100.959 98.2627
23 12 1 99.5036 98.3303 99.8363
24 12 1 100.332 98.8586 100.529
25 13 1 100.509 97.0864 98.0209
26 13 1 101.565 102.521 98.2305
27 14 1 99.1711 97.5437 99.2058
28 14 1 99.342 102.497 99.8459
29 15 1 98.9719 102.537 98.8125
30 15 1 97.9803 97.2457 98.9433
31 16 1 100.459 101.938 99.8359
32 16 1 100.998 101.036 99.1683
33 17 1 100.969 101.206 101.369
34 17 1 99.9446 101.661 100.823
35 18 1 99.1216 102.941 100.892
36 18 1 98.4545 97.1767 99.9346
37 19 1 99.4517 97.2749 98.145
38 19 1 99.1093 97.4032 102.937
39 20 1 101.992 97.7692 99.6607
40 20 1 101.093 97.328 99.0076
41 21 1 101.751 100.489 99.6326
42 21 1 100.728 100.905 100.208
43 22 1 101.69 99.333 99.5676
44 22 1 102.525 98.5605 99.1571
45 23 1 98.8097 100.147 102.058
46 23 1 100.006 99.8031 101.966
47 24 1 101.011 102.049 100.73
48 24 1 101.541 102.334 101.801
49 25 1 97.8743 101.173 98.9594
50 25 1 98.962 100.68 99.1278
51 26 1 99.2995 101.992 101.601
52 26 1 98.8378 101.84 100.545
53 27 1 101.103 98.9727 101.263
54 27 1 100.971 99.7886 100.366
55 28 1 97.9404 102.198 98.4946
56 28 1 97.4754 101.297 97.905
57 29 1 102.968 102.028 100.678
58 29 1 97.3899 101.529 99.7943
59 30 1 99.0254 99.282 99.4599
60 30 1 100.172 99.029 99.4191
61 31 1 99.9283 99.8025 100.123
62 31 1 99.2854 99.9497 101.145
63 32 1 98.3078 100.505 98.164
64 32 1 98.145 100.074 99.2893
65 33 1 100.255 97.5207 102.834
66 33 1 99.7184 102.49 97.2767
67 34 1 97.2779 99.3675 100.729
68 34 1 102.628 100.024 100.134
69 35 1 103.019 100.7 102.199
70 35 1 102.975 100.596 97.429
71 36 1 98.169 99.1557 98.7199
72 36 1 98.5114 98.066 98.3652
73 37 1 102.254 101.466 102.189
74 37 1 97.0955 101.716 101.692
75 38 1 99.8244 97.8318 101.865
76 38 1 100.889 98.2882 102.263
77 39 1 97.7873 102.353 100.395
78 39 1 97.2666 102.524 99.3576
79 40 1 101.832 97.2499 101.2
80 40 1 101.058 97.1522 100.242
81 41 1 101.96 97.295 102.402
82 41 1 102.079 98.053 97.3861
83 42 1 100.463 98.9287 98.4327
84 42 1 100.504 100.146 98.2692
85 43 1 97.521 99.8844 97.5026
86 43 1 98.5997 100.344 97.1603
87 44 1 102.273 98.7564 98.1581
88 44 1 101.481 98.5005 98.9894
89 45 1 98.1464 99.9542 101.057
90 45 1 97.0811 100.449 101.136
91 46 1 99.8788 101.659 102.511
92 46 1 100.497 100.912 97.3055
93 47 1 103.23 103 100.938
94 47 1 97.3751 98.1786 100.923
95 48 1 102.746 97.6304 101.702
96 48 1 102.396 98.4403 102.44
97 49 1 102.569 101.875 99.6543