ITEM: TIMESTEP
0
ITEM: NUMBER OF ATOMS
200
ITEM: BOX BOUNDS pp pp pp
9.7017222714120251e+01 1.0298277728587975e+02
9.7017222714120251e+01 1.0298277728587975e+02
9.7017222714120251e+01 1.0298277728587975e+02
ITEM: ATOMS id mol type x y z
1 1 1 100.616 102.018 97.6255
2 1 1 99.5473 101.522 97.5031
3 2 1 101.853 101.553 98.8827
4 2 1 97.0319 101.785 98.6964
5 3 1 101.767 99.1472 97.1866
6 3 1 101.404 99.4826 98.2643
7 4 1 99.9787 98.7942 101.489
8 4 1 99.6554 97.8849 100.794
9 5 1 102.335 97.81 100.689
10 5 1 101.482 98.6209 100.471
11 6 1 97.4917 98.4992 99.9719
12 6 1 97.6826 98.3428 98.8473
13 7 1 97.8216 99.8872 102.306
14 7 1 102.675 99.6465 102.71
15 8 1 102.368 99.8056 98.9862
16 8 1 101.5 100.483 98.5851
17 9 1 101.939 99.5306 100.913
18 9 1 102.646 98.7007 101.387
19 10 1 97.1345 99.1754 98.3961
20 10 1 97.2861 99.433 99.4863
21 11 1 101.307 101.328 98.0011
22 11 1 102.418 100.892 98.2288
23 12 1 99.5849 98.2866 99.8019
24 12 1 100.348 98.8623 100.49
25 13 1 100.482 97.1685 97.9817
26 13 1 101.522 102.535 98.0965
27 14 1 99.198 97.5179 99.2092
28 14 1 99.4282 102.478 99.8478
29 15 1 99.0425 102.551 98.797
30 15 1 98.0847 97.3295 98.9806
31 16 1 100.442 101.999 99.7805
32 16 1 100.89 101.115 99.1397
33 17 1 100.807 101.203 101.382
34 17 1 99.9386 101.726 100.788
35 18 1 99.1325 102.821 100.917
36 18 1 98.553 97.1227 99.9548
37 19 1 99.3709 97.3775 98.1293
38 19 1 99.0366 97.3552 102.954
39 20 1 101.912 97.8641 99.6874
40 20 1 101.17 97.3001 98.8781
41 21 1 101.663 100.545 99.6818
42 21 1 100.643 101.039 100.178
43 22 1 101.591 99.3194 99.6315
44 22 1 102.511 98.6649 99.1959
45 23 1 98.8366 100.175 101.985
46 23 1 100.018 99.8013 101.987
47 24 1 100.965 102.081 100.756
48 24 1 101.382 102.279 101.826
49 25 1 97.9266 101.136 98.8697
50 25 1 99.0048 100.63 98.9939
51 26 1 99.3054 101.999 101.614
52 26 1 98.8329 101.805 100.525
53 27 1 101.036 99.0158 101.361
54 27 1 100.985 99.7151 100.418
55 28 1 98.059 102.165 98.4742
56 28 1 97.5446 101.282 97.8378
57 29 1 102.868 101.908 100.746
58 29 1 97.4784 101.476 99.7821
59 30 1 99.1116 99.2988 99.4868
60 30 1 100.268 98.9962 99.4209
61 31 1 99.9443 99.806 100.108
62 31 1 99.3891 99.89 101.139
63 32 1 98.3751 100.547 98.1217
64 32 1 98.1116 100.091 99.2311
65 33 1 100.227 97.5657 102.821
66 33 1 99.7608 102.602 97.3289
67 34 1 97.3459 99.338 100.663
68 34 1 102.479 99.9299 100.089
69 35 1 102.889 100.609 102.171
70 35 1 102.894 100.591 97.3473
71 36 1 98.2912 99.1874 98.767
72 36 1 98.6079 98.0783 98.4243
73 37 1 102.104 101.534 102.257
74 37 1 97.1964 101.672 101.745
75 38 1 99.8163 97.8477 101.859
76 38 1 100.876 98.3683 102.213
77 39 1 97.8644 102.338 100.449
78 39 1 97.4374 102.503 99.3709
79 40 1 101.709 97.1861 101.299
80 40 1 101.053 97.1231 100.356
81 41 1 101.926 97.3584 102.389
82 41 1 102.034 98.0711 97.3704
83 42 1 100.503 98.9416 98.4051
84 42 1 100.501 100.169 98.2881
85 43 1 97.6175 99.8004 97.4274
86 43 1 98.6943 100.331 97.0992
87 44 1 102.135 98.7685 98.1638
88 44 1 101.324 98.4748 98.9928
89 45 1 98.2454 99.909 101.156
90 45 1 97.2606 100.572 101.119
91 46 1 99.8673 101.695 102.495
92 46 1 100.464 100.971 97.3249
93 47 1 102.955 102.948 100.911
94 47 1 97.4217 98.0916 100.949
95 48 1 102.682 97.6251 101.658
96 48 1 102.177 98.4448 102.384
97 49 1 102.484 101.904 99.684
98 49 1 101.528 102.555 99.5755
99 50 1 98.8708 100.066 100.244
100 50 1 98.8658 100.911 101.106
101 51 1 100.064 97.3105 99.9541
102 51 1 100.302 97.9466 98.929
103 52 1 98.7334 99.5816 97.8669
104 52 1 99.3321 99.5552 102.792
105 53 1 97.6178 102.25 97.4759
106 53 1 98.0915 97.3023 97.9137
107 54 1 100.325 100.368 101.033
108 54 1 100.595 100.628 102.249
109 55 1 97.971 101.949 102.435
110 55 1 97.8088 100.837 102.779
111 56 1 102.409 97.1037 97.6685
112 56 1 102.311 102.582 98.8128
113 57 1 97.9998 102.978 102.766
114 57 1 102.968 97.6615 102.722
115 58 1 98.3834 98.1846 100.481
116 58 1 98.2218 99.2776 99.9909
117 59 1 98.8491 98.2204 102.4
118 59 1 98.6882 97.1226 101.939
119 60 1 98.2955 99.1012 102.764
120 60 1 98.9972 98.4009 97.4674
121 61 1 97.5718 100.324 100.12
122 61 1 102.735 100.791 99.3385
123 62 1 100.396 102.099 101.733
124 62 1 100.843 97.2488 101.92
125 63 1 100.745 98.885 97.3639
126 63 1 99.6661 99.1582 97.7621
127 64 1 99.5494 101.588 99.289
128 64 1 100.206 101.203 98.3444
129 65 1 99.0556 99.1289 101.831
130 65 1 98.8253 98.0301 101.369
131 66 1 97.0282 97.5938 99.0604
132 66 1 102.526 102.943 99.8857
133 67 1 101.537 101.604 100.013
134 67 1 101.444 100.627 100.718
135 68 1 102.412 102.427 101.715
136 68 1 101.967 102.457 100.586
137 69 1 97.2666 98.7864 102.279
138 69 1 97.9494 98.0424 102.982
139 70 1 101.692 102.205 97.079
140 70 1 100.614 102.487 102.652
141 71 1 97.8685 101.351 100.762
142 71 1 98.4603 100.967 99.8535
143 72 1 100.014 98.1342 97.745
144 72 1 99.4564 98.5916 98.7312
145 73 1 100.323 99.8587 97.2719
146 73 1 99.6638 100.625 102.722
147 74 1 101.968 101.11 97.2648
148 74 1 102.98 101.552 102.823
149 75 1 98.7815 102.429 97.7837
150 75 1 98.9881 102.275 102.6
151 76 1 98.924 101.463 98.3918
152 76 1 98.4614 101.499 97.3237
153 77 1 97.1089 97.964 97.9651
154 77 1 97.2538 102.792 98.3167
155 78 1 102.982 99.6556 101.647
156 78 1 102.187 100.466 101.401
157 79 1 101.694 98.233 101.492
158 79 1 101.962 99.3592 101.949
159 80 1 98.2665 102.085 101.453
160 80 1 98.1056 97.2351 101.018
161 81 2 98.5445 98.2825 99.4682
162 82 2 101.053 101.469 102.548
163 83 2 102.484 98.8598 100.222
164 84 2 100.174 102.932 101.115
165 85 2 100.728 97.8943 101.093
166 86 2 100.085 102.819 99.0043
167 87 2 100.747 98.0616 99.9367
168 88 2 97.8802 97.8392 101.939
169 89 2 101.153 100.063 101.576
170 90 2 98.8637 101.216 102.243
171 91 2 97.5421 97.4529 99.9874
172 92 2 99.6824 99.751 98.7198
173 93 2 99.75 100.903 101.677
174 94 2 102.417 99.8205 97.8317
175 95 2 100.776 99.8975 99.2439
176 96 2 102.939 98.786 97.3022
177 97 2 101.325 100.276 97.5132
178 98 2 97.977 98.8357 97.8241
179 99 2 99.1383 98.9732 100.708
180 100 2 98.3811 101.99 99.5733
181 101 2 101.815 101.528 101.164
182 102 2 97.3132 100.256 98.3715
183 103 2 102.506 100.961 100.402
184 104 2 99.5603 100.403 97.8449
185 105 2 102.784 102.592 102.739
186 106 2 99.5735 100.907 100.238
187 107 2 102.051 97.7303 98.4675
188 108 2 99.9924 100.591 99.3122
189 109 2 100.8 102.082 98.7858
190 110 2 99.9337 98.5798 102.7
191 111 2 98.0398 98.9374 101.574
192 112 2 99.855 102.163 98.2782
193 113 2 101.137 98.0527 98.0614
194 114 2 99.7656 102.822 102.153
195 115 2 102.513 101.995 97.8063
196 116 2 101.28 97.247 97.3075
197 117 2 98.0075 100.915 101.748
198 118 2 97.4119 102.793 101.887
199 119 2 100.979 99.4877 102.44
200 120 2 101.766 100.414 102.429
ITEM: TIMESTEP
1000
ITEM: NUMBER OF ATOMS
200
ITEM: BOX BOUNDS pp pp pp
9.6987245304022295e+01 1.0301275469597770e+02
9.7017222714120251e+01 1.0298277728587975e+02
9.7017222714120251e+01 1.0298277728587975e+02
ITEM: ATOMS id mol type x y z
1 1 1 100.596 101.89 97.582
2 1 1 99.4546 101.473 97.5025
3 2 1 101.858 101.594 98.8946
4 2 1 97.01 101.677 98.7421
5 3 1 101.803 99.2307 97.2627
6 3 1 101.493 99.4813 98.4031
7 4 1 100.029 98.8357 101.579
8 4 1 99.6972 97.9627 100.813
9 5 1 102.342 97.8086 100.661
10 5 1 101.444 98.5855 100.417
11 6 1 97.4102 98.5013 99.9024
12 6 1 97.6059 98.3044 98.7951
13 7 1 97.8373 99.837 102.24
14 7 1 102.713 99.7221 102.692
15 8 1 102.402 99.7096 99.0131
16 8 1 101.603 100.5 98.6981
17 9 1 101.919 99.4958 100.863
18 9 1 102.67 98.7081 101.399
19 10 1 97.1924 99.2082 98.4052
20 10 1 97.232 99.4982 99.5279
21 11 1 101.288 101.257 98.0652
22 11 1 102.424 100.907 98.2704
23 12 1 99.5286 98.3628 99.8647
24 12 1 100.356 98.8984 100.497
25 13 1 100.495 97.1178 97.986
26 13 1 101.517 102.462 98.0518
27 14 1 99.1765 97.544 99.1518
28 14 1 99.3979 102.525 99.8244
29 15 1 99.006 102.499 98.8114
30 15 1 98.0857 97.2498 99.0006
31 16 1 100.552 102.069 99.8305
32 16 1 100.937 101.158 99.1829
33 17 1 100.934 101.256 101.441
34 17 1 99.9886 101.74 100.804
35 18 1 99.1381 102.886 100.941
36 18 1 98.5475 97.2278 99.9829
37 19 1 99.3967 97.2762 98.1453
38 19 1 99.0221 97.3721 102.965
39 20 1 101.866 97.8092 99.6223
40 20 1 101.187 97.256 98.859
41 21 1 101.716 100.561 99.7451
42 21 1 100.645 101.024 100.19
43 22 1 101.643 99.3374 99.6395
44 22 1 102.539 98.5585 99.2006
45 23 1 98.8417 100.196 102.033
46 23 1 100.029 99.8429 101.96
47 24 1 101.011 102.121 100.801
48 24 1 101.44 102.298 101.866
49 25 1 97.9407 101.131 98.8741
50 25 1 99.0313 100.595 98.972
51 26 1 99.2922 102.007 101.579
52 26 1 98.8568 101.848 100.515
53 27 1 101.031 99.0322 101.327
54 27 1 100.976 99.7994 100.385
55 28 1 98.0353 102.14 98.5228
56 28 1 97.5446 101.224 97.9008
57 29 1 102.949 101.946 100.649
58 29 1 97.4966 101.442 99.7834
59 30 1 99.1015 99.3558 99.4606
60 30 1 100.235 99.0093 99.4081
61 31 1 99.8863 99.793 100.19
62 31 1 99.3432 99.9735 101.144
63 32 1 98.3166 100.438 98.1407
64 32 1 98.1306 100.071 99.2785
65 33 1 100.184 97.5259 102.849
66 33 1 99.7657 102.484 97.3099
67 34 1 97.3506 99.2622 100.655
68 34 1 102.547 99.9657 100.168
69 35 1 102.912 100.653 102.166
70 35 1 102.885 100.582 97.361
71 36 1 98.3402 99.1985 98.7482
72 36 1 98.6078 98.0313 98.3952
73 37 1 102.127 101.578 102.24
74 37 1 97.1442 101.648 101.676
75 38 1 99.8308 97.8343 101.87
76 38 1 100.851 98.3342 102.24
77 39 1 97.8657 102.369 100.44
78 39 1 97.3866 102.486 99.3869
79 40 1 101.708 97.2204 101.277
80 40 1 101.058 97.1169 100.288
81 41 1 101.969 97.3075 102.407
82 41 1 102.084 98.1303 97.3919
83 42 1 100.548 98.9489 98.3526
84 42 1 100.634 100.183 98.331
85 43 1 97.5494 99.7533 97.4189
86 43 1 98.6065 100.323 97.0902
87 44 1 102.26 98.7961 98.2265
88 44 1 101.33 98.522 98.9836
89 45 1 98.1778 99.9856 101.082
90 45 1 97.1644 100.612 101.09
91 46 1 99.8752 101.616 102.543
92 46 1 100.457 100.897 97.3436
93 47 1 103 102.94 100.88
94 47 1 97.3725 98.0753 100.901
95 48 1 102.714 97.6437 101.682
96 48 1 102.277 98.4918 102.416
97 49 1 102.565 101.93 99.659
98 49 1 101.526 102.505 99.5451
99 50 1 98.7824 100.121 100.239
100 50 1 98.8199 100.924 101.15
101 51 1 100.004 97.3494 99.9708
102 51 1 100.241 97.92 98.9102
103 52 1 98.6969 99.4958 97.7728
104 52 1 99.3091 99.5345 102.728
105 53 1 97.605 102.21 97.5081
106 53 1 98.1225 97.2558 97.8826
107 54 1 100.329 100.408 101.039
108 54 1 100.605 100.633 102.226
109 55 1 97.8555 101.949 102.432
110 55 1 97.7348 100.809 102.797
111 56 1 102.372 97.0725 97.6503
112 56 1 102.304 102.591 98.7933
113 57 1 98.0287 102.982 102.796
114 57 1 103.032 97.6401 102.719
115 58 1 98.3098 98.2063 100.478
116 58 1 98.1813 99.2566 99.9705
117 59 1 98.8567 98.1954 102.364
118 59 1 98.6291 97.1075 101.882
119 60 1 98.3394 99.058 102.681
120 60 1 98.9146 98.3718 97.4577
121 61 1 97.5497 100.442 100.132
122 61 1 102.718 100.821 99.368
123 62 1 100.411 102.094 101.715
124 62 1 100.828 97.249 101.942
125 63 1 100.743 98.8164 97.2734
126 63 1 99.6464 99.1309 97.7328
127 64 1 99.4946 101.577 99.2917
128 64 1 100.082 101.132 98.3388
129 65 1 99.0256 99.0701 101.764
130 65 1 98.8205 98.0166 101.364
131 66 1 96.9791 97.5385 98.995
132 66 1 102.54 102.943 99.8878
133 67 1 101.591 101.593 100.055
134 67 1 101.47 100.646 100.744
135 68 1 102.477 102.515 101.707
136 68 1 102.006 102.445 100.618
137 69 1 97.2967 98.8502 102.279
138 69 1 97.9327 98.047 102.982
139 70 1 101.778 102.245 97.0469
140 70 1 100.666 102.459 102.67
141 71 1 97.872 101.337 100.782
142 71 1 98.5078 101.021 99.8303
143 72 1 99.9433 98.0992 97.8307
144 72 1 99.4244 98.5612 98.8152
145 73 1 100.345 99.828 97.352
146 73 1 99.6417 100.583 102.733
147 74 1 101.952 101.177 97.2912
148 74 1 103.017 101.546 102.793
149 75 1 98.7438 102.39 97.754
150 75 1 98.8794 102.305 102.598
151 76 1 98.901 101.485 98.3987
152 76 1 98.4166 101.498 97.2801
153 77 1 97.0645 97.9771 97.9187
154 77 1 97.2329 102.823 98.2757
155 78 1 103.038 99.6587 101.589
156 78 1 102.175 100.433 101.488
157 79 1 101.739 98.2705 101.508
158 79 1 101.958 99.4069 101.908
159 80 1 98.2659 102.14 101.406
160 80 1 98.0728 97.2774 100.998
161 81 2 98.4987 98.2951 99.449
162 82 2 101.038 101.507 102.614
163 83 2 102.48 98.8643 100.212
164 84 2 100.182 102.928 101.101
165 85 2 100.749 97.9514 101.093
166 86 2 100.112 102.826 99.0181
167 87 2 100.71 98.0778 99.87
168 88 2 97.8465 97.8644 101.92
169 89 2 101.152 100.053 101.522
170 90 2 98.8192 101.23 102.246
171 91 2 97.5079 97.4433 99.9396
172 92 2 99.7365 99.7007 98.6498
173 93 2 99.7423 100.931 101.684
174 94 2 102.481 99.785 97.8589
175 95 2 100.79 99.9022 99.3034
176 96 2 102.997 98.8568 97.2946
177 97 2 101.424 100.201 97.596
178 98 2 97.9384 98.8215 97.8084
179 99 2 99.1348 99.0099 100.649
180 100 2 98.3588 102.017 99.6023
181 101 2 101.968 101.566 101.174
182 102 2 97.235 100.227 98.5201
183 103 2 102.521 101.014 100.426
184 104 2 99.5203 100.346 97.8305
185 105 2 102.884 102.607 102.772
186 106 2 99.5586 100.868 100.27
187 107 2 102.026 97.7584 98.4425
188 108 2 100.017 100.559 99.3084
189 109 2 100.785 102.098 98.7154
190 110 2 99.8948 98.5441 102.701
191 111 2 97.991 98.9207 101.491
192 112 2 99.829 102.15 98.3068
193 113 2 101.083 98.0238 98.0481
194 114 2 99.7502 102.79 102.156
195 115 2 102.558 101.985 97.7832
196 116 2 101.285 97.2834 97.2691
197 117 2 97.9696 100.901 101.763
198 118 2 97.4701 102.891 101.844
199 119 2 101.056 99.4761 102.446
200 120 2 101.768 100.441 102.491
ITEM: TIMESTEP
2000
ITEM: NUMBER OF ATOMS
200
ITEM: BOX BOUNDS pp pp pp
9.6956966615944111e+01 1.0304303338405589e+02
9.7017222714120251e+01 1.0298277728587975e+02
9.7017222714120251e+01 1.0298277728587975e+02
ITEM: ATOMS id mol type x y z
1 1 1 100.618 101.987 97.6159
2 1 1 99.5143 101.532 97.4414
3 2 1 101.917 101.606 98.878
4 2 1 96.9957 101.684 98.7343
5 3 1 101.841 99.1718 97.2111
6 3 1 101.465 99.4304 98.3554
7 4 1 100.135 98.8307 101.569
8 4 1 99.7309 97.9614 100.75
9 5 1 102.373 97.7856 100.684
10 5 1 101.534 98.5854 100.397
11 6 1 97.4136 98.4897 99.8743
12 6 1 97.6341 98.2409 98.7399
13 7 1 97.7223 99.851 102.54
14 7 1 102.638 99.7442 102.692
15 8 1 102.443 99.7706 99.0479
16 8 1 101.608 100.453 98.6439
17 9 1 101.939 99.527 100.874
18 9 1 102.669 98.7604 101.439
19 10 1 97.1069 99.2011 98.427
20 10 1 97.226 99.4708 99.5538
21 11 1 101.295 101.245 98.0051
22 11 1 102.455 100.907 98.1883
23 12 1 99.5487 98.328 99.7741
24 12 1 100.345 98.8836 100.525
25 13 1 100.505 97.0565 98.0655
26 13 1 101.5 102.466 98.1109
27 14 1 99.2 97.5164 99.1877
28 14 1 99.411 102.434 99.871
29 15 1 99.0186 102.523 98.8523
30 15 1 98.0321 97.2639 98.9566
31 16 1 100.394 101.945 99.7725
32 16 1 100.943 101.098 99.1306
33 17 1 100.956 101.204 101.424
34 17 1 100.022 101.609 100.804
35 18 1 99.0774 102.874 100.949
36 18 1 98.5103 97.1678 99.9343
37 19 1 99.3941 97.2858 98.1505
38 19 1 99.0353 97.3684 103.012
39 20 1 101.936 97.8744 99.669
40 20 1 101.178 97.345 98.9446
41 21 1 101.697 100.499 99.677
42 21 1 100.668 100.917 100.167
43 22 1 101.67 99.339 99.6539
44 22 1 102.616 98.6136 99.2082
45 23 1 98.8182 100.134 101.94
46 23 1 99.9988 99.827 101.981
47 24 1 101.005 102.141 100.769
48 24 1 101.469 102.302 101.832
49 25 1 97.9568 101.152 98.9326
50 25 1 98.9671 100.566 99.0149
51 26 1 99.2634 102.037 101.642
52 26 1 98.8128 101.812 100.568
53 27 1 101.109 99.0006 101.32
54 27 1 100.935 99.7934 100.411
55 28 1 97.9862 102.18 98.4936
56 28 1 97.5701 101.232 97.8951
57 29 1 102.967 101.936 100.721
58 29 1 97.4271 101.459 99.799
59 30 1 99.095 99.3099 99.443
60 30 1 100.245 98.9766 99.417
61 31 1 99.9171 99.7942 100.063
62 31 1 99.3749 99.9086 101.099
63 32 1 98.3432 100.475 98.1752
64 32 1 98.1171 100.066 99.2853
65 33 1 100.252 97.6158 102.784
66 33 1 99.7536 102.594 97.3272
67 34 1 97.3137 99.316 100.699
68 34 1 102.55 100.003 100.16
69 35 1 102.934 100.712 102.132
70 35 1 102.966 100.566 97.293
71 36 1 98.2118 99.142 98.7688
72 36 1 98.6054 98.0642 98.3931
73 37 1 102.156 101.465 102.183
74 37 1 97.1678 101.631 101.7
75 38 1 99.8959 97.8576 101.777
76 38 1 100.945 98.3342 102.2
77 39 1 97.7999 102.366 100.467
78 39 1 97.378 102.498 99.3513
79 40 1 101.767 97.1912 101.323
80 40 1 101.141 97.176 100.322
81 41 1 102.022 97.3986 102.452
82 41 1 102.074 98.1498 97.4061
83 42 1 100.519 98.9169 98.4168
84 42 1 100.587 100.135 98.2654
85 43 1 97.6118 99.8458 97.6164
86 43 1 98.591 100.395 97.1245
87 44 1 102.239 98.8067 98.2185
88 44 1 101.354 98.5433 98.9985
89 45 1 98.1433 99.9112 100.979
90 45 1 97.0518 100.385 101.006
91 46 1 99.9307 101.656 102.476
92 46 1 100.473 100.933 97.3206
93 47 1 103.077 102.971 100.896
94 47 1 97.3186 98.1854 100.925
95 48 1 102.744 97.6602 101.688
96 48 1 102.322 98.5085 102.429
97 49 1 102.532 101.908 99.6908
98 49 1 101.488 102.496 99.5816
99 50 1 98.8881 100.055 100.152
100 50 1 98.7774 100.831 101.059
101 51 1 100.019 97.3017 99.9371
102 51 1 100.242 97.9348 98.9287
103 52 1 98.7318 99.5049 97.8957
104 52 1 99.2577 99.5727 102.841
105 53 1 97.5573 102.255 97.4789
106 53 1 97.9873 97.3944 97.8696
107 54 1 100.282 100.41 101.027
108 54 1 100.583 100.662 102.218
109 55 1 97.8844 101.997 102.441
110 55 1 97.7527 100.884 102.764
111 56 1 102.38 97.1325 97.7032
112 56 1 102.32 102.651 98.8341
113 57 1 97.9813 102.97 102.815
114 57 1 103.077 97.7396 102.72
115 58 1 98.2599 98.249 100.524
116 58 1 98.1552 99.2728 100.004
117 59 1 98.9432 98.1721 102.347
118 59 1 98.5757 97.0764 101.943
119 60 1 98.3399 99.0262 102.643
120 60 1 98.9984 98.4518 97.4529
121 61 1 97.4561 100.427 100.041
122 61 1 102.625 100.892 99.3238
123 62 1 100.464 102.099 101.701
124 62 1 100.881 97.2631 101.968
125 63 1 100.831 98.849 97.3419
126 63 1 99.7258 99.1857 97.7604
127 64 1 99.4136 101.551 99.2222
128 64 1 100.159 101.184 98.2956
129 65 1 99.088 99.1001 101.746
130 65 1 98.7952 98.0091 101.369
131 66 1 96.9411 97.5651 99.0591
132 66 1 102.558 103.011 99.9073
133 67 1 101.61 101.502 100.006
134 67 1 101.525 100.603 100.737
135 68 1 102.527 102.426 101.707
136 68 1 102.001 102.394 100.565
137 69 1 97.2854 98.7828 102.303
138 69 1 98.0507 98.0288 102.952
139 70 1 101.807 102.31 96.9732
140 70 1 100.642 102.459 102.679
141 71 1 97.7724 101.286 100.796
142 71 1 98.4352 100.951 99.9101
143 72 1 99.9719 98.1298 97.7563
144 72 1 99.4386 98.6102 98.7022
145 73 1 100.306 99.8922 97.2506
146 73 1 99.5473 100.648 102.72
147 74 1 102.034 101.12 97.247
148 74 1 103.065 101.591 102.848
149 75 1 98.713 102.489 97.8138
150 75 1 98.933 102.285 102.662
151 76 1 98.8462 101.435 98.3435
152 76 1 98.4894 101.513 97.2723
153 77 1 96.9924 98.0171 97.9175
154 77 1 97.1543 102.844 98.3126
155 78 1 103.16 99.6626 101.717
156 78 1 102.188 100.36 101.481
157 79 1 101.786 98.2042 101.529
158 79 1 101.905 99.3453 101.974
159 80 1 98.1845 102.106 101.446
160 80 1 98.0389 97.2972 101.042
161 81 2 98.5188 98.2521 99.482
162 82 2 101.109 101.517 102.574
163 83 2 102.576 98.8641 100.242
164 84 2 100.204 102.962 101.07
165 85 2 100.817 97.9275 101.102
166 86 2 100.101 102.805 99.047
167 87 2 100.74 98.0496 99.8817
168 88 2 97.8559 97.8651 101.947
169 89 2 101.138 100.043 101.563
170 90 2 98.7228 101.195 102.192
171 91 2 97.5053 97.4392 99.96
172 92 2 99.6867 99.7552 98.6598
173 93 2 99.6535 100.929 101.691
174 94 2 102.458 99.8544 97.8922
175 95 2 100.8 99.8789 99.2635
176 96 2 102.995 98.9159 97.333
177 97 2 101.354 100.161 97.5256
178 98 2 97.9144 98.8375 97.7877
179 99 2 99.1544 98.9732 100.596
180 100 2 98.3689 101.965 99.6173
181 101 2 101.964 101.491 101.145
182 102 2 97.203 100.294 98.5258
183 103 2 102.567 101.011 100.396
184 104 2 99.5408 100.394 97.8457
185 105 2 102.932 102.638 102.758
186 106 2 99.5691 100.926 100.207
187 107 2 102.043 97.7995 98.5181
188 108 2 99.9916 100.609 99.2469
189 109 2 100.78 102.053 98.7504
190 110 2 99.9843 98.6421 102.689
191 111 2 98.0294 98.9477 101.528
192 112 2 99.7593 102.133 98.2545
193 113 2 101.118 97.9858 98.09
194 114 2 99.729 102.853 102.128
195 115 2 102.571 102.044 97.8068
196 116 2 101.294 97.2802 97.3017
197 117 2 97.9088 100.686 101.733
198 118 2 97.4028 102.867 101.893
199 119 2 100.946 99.4172 102.383
200 120 2 101.678 100.369 102.498
ITEM: TIMESTEP
3000
ITEM: NUMBER OF ATOMS
200
ITEM: BOX BOUNDS pp pp pp
9.6926383621991647e+01 1.0307361637800835e+02
9.7017222714120251e+01 1.0298277728587975e+02
9.7017222714120251e+01 1.0298277728587975e+02
ITEM: ATOMS id mol type x y z
1 1 1 100.61 101.899 97.5763
2 1 1 99.4731 101.499 97.5516
3 2 1 101.93 101.704 98.8966
4 2 1 96.957 101.766 98.7814
5 3 1 101.846 99.2074 97.1815
6 3 1 101.39 99.402 98.2858
7 4 1 100.031 98.767 101.478
8 4 1 99.7277 97.8936 100.769
9 5 1 102.355 97.8085 100.723
10 5 1 101.47 98.5938 100.425
11 6 1 97.364 98.481 99.8709
12 6 1 97.6447 98.2883 98.7628
13 7 1 97.7142 99.9281 102.322
14 7 1 102.757 99.7451 102.665
15 8 1 102.478 99.7615 99.0073
16 8 1 101.612 100.424 98.5226
17 9 1 101.931 99.4602 100.839
18 9 1 102.682 98.7005 101.385
19 10 1 97.0566 99.1837 98.444
20 10 1 97.2211 99.4785 99.5764
21 11 1 101.331 101.296 98.0524
22 11 1 102.48 100.986 98.311
23 12 1 99.5387 98.3031 99.8079
24 12 1 100.337 98.8113 100.473
25 13 1 100.474 97.1785 98.0403
26 13 1 101.552 102.534 98.095
27 14 1 99.1823 97.5321 99.1926
28 14 1 99.3909 102.462 99.8351
29 15 1 98.9946 102.516 98.8109
30 15 1 98.0484 97.316 98.9236
31 16 1 100.515 102.043 99.8241
32 16 1 100.968 101.103 99.1197
33 17 1 100.922 101.177 101.423
34 17 1 99.9995 101.676 100.768
35 18 1 99.0686 102.852 100.917
36 18 1 98.5299 97.1591 99.9329
37 19 1 99.3785 97.3257 98.1535
38 19 1 99.0374 97.3532 102.98
39 20 1 101.902 97.8487 99.7323
40 20 1 101.215 97.2991 98.9499
41 21 1 101.775 100.572 99.6447
42 21 1 100.702 100.975 100.166
43 22 1 101.701 99.3662 99.6445
44 22 1 102.595 98.6399 99.2097
45 23 1 98.8817 100.153 102.057
46 23 1 100.029 99.7178 101.94
47 24 1 101.001 102.087 100.775
48 24 1 101.497 102.333 101.866
49 25 1 97.8816 101.116 98.9229
50 25 1 98.9662 100.608 99.06
51 26 1 99.252 102.006 101.618
52 26 1 98.8672 101.751 100.554
53 27 1 101.006 98.9932 101.297
54 27 1 100.971 99.759 100.363
55 28 1 98.0036 102.2 98.5112
56 28 1 97.4585 101.32 97.8944
57 29 1 102.952 101.952 100.75
58 29 1 97.3827 101.458 99.844
59 30 1 99.0937 99.32 99.4739
60 30 1 100.233 99.0303 99.4201
61 31 1 99.8841 99.7606 100.114
62 31 1 99.3348 99.9645 101.157
63 32 1 98.3098 100.502 98.1244
64 32 1 98.0524 100.086 99.2398
65 33 1 100.277 97.5053 102.858
66 33 1 99.7241 102.529 97.3119
67 34 1 97.3464 99.3198 100.663
68 34 1 102.588 99.9639 100.141
69 35 1 102.959 100.717 102.167
70 35 1 102.921 100.613 97.3828
71 36 1 98.251 99.1615 98.7585
72 36 1 98.5662 98.0868 98.3205
73 37 1 102.167 101.568 102.215
74 37 1 97.074 101.731 101.725
75 38 1 99.8574 97.8108 101.842
76 38 1 100.92 98.2531 102.224
77 39 1 97.7649 102.338 100.443
78 39 1 97.3129 102.56 99.3797
79 40 1 101.726 97.2473 101.332
80 40 1 101.145 97.1641 100.323
81 41 1 102.002 97.3713 102.442
82 41 1 102.1 98.1394 97.4155
83 42 1 100.51 98.8779 98.4221
84 42 1 100.612 100.11 98.2919
85 43 1 97.4708 99.8227 97.3832
86 43 1 98.5994 100.293 97.1076
87 44 1 102.232 98.8123 98.1862
88 44 1 101.465 98.556 99.0354
89 45 1 98.0834 99.918 101.211
90 45 1 97.1021 100.545 101.1
91 46 1 99.874 101.642 102.562
92 46 1 100.491 100.895 97.3274
93 47 1 103.081 102.974 100.939
94 47 1 97.3298 98.1227 100.938
95 48 1 102.775 97.6503 101.728
96 48 1 102.294 98.4619 102.436
97 49 1 102.592 101.919 99.7159
98 49 1 101.583 102.511 99.5851
99 50 1 98.8051 100.04 100.209
100 50 1 98.7558 100.847 101.099
101 51 1 100.031 97.3089 99.9242
102 51 1 100.251 97.8851 98.8974
103 52 1 98.6898 99.5187 97.8612
104 52 1 99.3293 99.5239 102.778
105 53 1 97.5184 102.302 97.5118
106 53 1 98.1123 97.3051 97.8235
107 54 1 100.323 100.374 101.02
108 54 1 100.572 100.574 102.236
109 55 1 97.8523 102.007 102.471
110 55 1 97.6801 100.839 102.858
111 56 1 102.439 97.192 97.7064
112 56 1 102.431 102.672 98.8338
113 57 1 97.9814 103.009 102.789
114 57 1 103.14 97.6949 102.723
115 58 1 98.2827 98.1194 100.44
116 58 1 98.1845 99.2032 99.9729
117 59 1 98.8252 98.2308 102.347
118 59 1 98.6299 97.1253 101.912
119 60 1 98.2734 99.1074 102.724
120 60 1 98.9567 98.4567 97.4449
121 61 1 97.4612 100.43 100.107
122 61 1 102.855 100.746 99.3046
123 62 1 100.4 102.05 101.722
124 62 1 100.806 97.2527 101.896
125 63 1 100.768 98.8117 97.3229
126 63 1 99.7117 99.1521 97.7483
127 64 1 99.5627 101.547 99.2353
128 64 1 100.254 101.211 98.3092
129 65 1 99.0107 99.1154 101.738
130 65 1 98.8071 98.0083 101.315
131 66 1 96.9154 97.6158 99.1181
132 66 1 102.553 102.978 99.9378
133 67 1 101.612 101.578 100.045
134 67 1 101.508 100.596 100.695
135 68 1 102.513 102.53 101.682
136 68 1 101.985 102.451 100.634
137 69 1 97.1943 98.7806 102.296
138 69 1 97.9494 98.0835 102.943
139 70 1 101.804 102.224 97.0297
140 70 1 100.71 102.466 102.689
141 71 1 97.7581 101.313 100.806
142 71 1 98.4169 100.972 99.8921
143 72 1 99.9671 98.121 97.7569
144 72 1 99.407 98.5948 98.6916
145 73 1 100.349 99.8148 97.174
146 73 1 99.5724 100.563 102.73
147 74 1 102.022 101.157 97.2588
148 74 1 103.05 101.583 102.859
149 75 1 98.7518 102.41 97.7859
150 75 1 98.8878 102.287 102.604
151 76 1 98.7968 101.516 98.4267
152 76 1 98.4265 101.46 97.3113
153 77 1 97.0254 98.0242 97.9046
154 77 1 97.1795 102.891 98.3022
155 78 1 103.138 99.6303 101.632
156 78 1 102.242 100.428 101.448
157 79 1 101.752 98.3124 101.511
158 79 1 102.02 99.409 101.889
159 80 1 98.243 102.116 101.419
160 80 1 98.0053 97.2507 101.04
161 81 2 98.5019 98.2968 99.4664
162 82 2 101.082 101.464 102.552
163 83 2 102.585 98.8559 100.249
164 84 2 100.179 102.904 101.07
165 85 2 100.765 97.926 101.053
166 86 2 100.087 102.802 99.0136
167 87 2 100.737 98.0423 99.8554
168 88 2 97.8084 97.872 101.91
169 89 2 101.168 100.002 101.566
170 90 2 98.7506 101.216 102.284
171 91 2 97.4639 97.4333 99.9944
172 92 2 99.716 99.7149 98.6645
173 93 2 99.7003 100.936 101.701
174 94 2 102.49 99.7663 97.8213
175 95 2 100.863 99.8855 99.3054
176 96 2 102.979 98.913 97.3008
177 97 2 101.41 100.257 97.4738
178 98 2 97.8433 98.869 97.7803
179 99 2 99.1765 98.9646 100.639
180 100 2 98.3389 101.994 99.6165
181 101 2 101.928 101.556 101.191
182 102 2 97.2407 100.256 98.3684
183 103 2 102.577 100.989 100.404
184 104 2 99.5231 100.373 97.8547
185 105 2 102.878 102.61 102.697
186 106 2 99.5761 100.835 100.204
187 107 2 102.085 97.8059 98.5262
188 108 2 100.046 100.582 99.2966
189 109 2 100.818 102.108 98.7427
190 110 2 99.9293 98.5305 102.708
191 111 2 97.9704 98.9081 101.581
192 112 2 99.8222 102.175 98.2635
193 113 2 101.13 98.0212 98.1049
194 114 2 99.7425 102.775 102.136
195 115 2 102.572 102.054 97.8702
196 116 2 101.335 97.247 97.3459
197 117 2 97.9094 100.923 101.791
198 118 2 97.4048 102.848 101.882
199 119 2 101.122 99.3387 102.396
200 120 2 101.754 100.46 102.389
ITEM: TIMESTEP
4000
ITEM: NUMBER OF ATOMS
200
ITEM: BOX BOUNDS pp pp pp
9.6895493263840024e+01 1.0310450673615998e+02
9.7017222714120251e+01 1.0298277728587975e+02
9.7017222714120251e+01 1.0298277728587975e+02
ITEM: ATOMS id mol type x y z
1 1 1 100.673 101.93 97.5703
2 1 1 99.515 101.508 97.4648
3 2 1 101.901 101.518 98.9209
4 2 1 96.9036 101.668 98.7652
5 3 1 101.861 99.1475 97.1786
6 3 1 101.383 99.4586 98.2601
7 4 1 100.055 98.7878 101.602
8 4 1 99.7353 97.9256 100.804
9 5 1 102.507 97.8021 100.624
10 5 1 101.606 98.4937 100.457
11 6 1 97.3158 98.5314 99.8964
12 6 1 97.6041 98.2184 98.7878
13 7 1 97.6795 99.9079 102.388
14 7 1 102.693 99.773 102.714
15 8 1 102.438 99.6504 99.0261
16 8 1 101.639 100.426 98.5958
17 9 1 101.918 99.4814 100.827
18 9 1 102.661 98.692 101.369
19 10 1 97.0398 99.1142 98.5046
20 10 1 97.176 99.5866 99.5748
21 11 1 101.427 101.275 97.9931
22 11 1 102.546 100.843 98.2735
23 12 1 99.5493 98.3091 99.8111
24 12 1 100.29 98.8928 100.542
25 13 1 100.502 97.06 98.0459
26 13 1 101.543 102.455 98.0232
27 14 1 99.1671 97.5103 99.2234
28 14 1 99.3955 102.419 99.846
29 15 1 98.9874 102.531 98.8463
30 15 1 98.0386 97.2276 98.9847
31 16 1 100.574 101.974 99.8267
32 16 1 100.978 101.084 99.1244
33 17 1 100.836 101.168 101.205
34 17 1 99.9132 101.796 100.752
35 18 1 99.127 102.936 101.002
36 18 1 98.4953 97.1404 99.9904
37 19 1 99.4132 97.2555 98.135
38 19 1 99.042 97.3683 102.978
39 20 1 101.898 97.7698 99.6745
40 20 1 101.17 97.3065 98.8398
41 21 1 101.787 100.533 99.6252
42 21 1 100.707 100.904 100.099
43 22 1 101.677 99.3165 99.6687
44 22 1 102.523 98.5635 99.2285
45 23 1 98.799 100.184 102.018
46 23 1 99.9725 99.8209 101.964
47 24 1 101.056 102.176 100.799
48 24 1 101.496 102.346 101.906
49 25 1 97.9077 101.166 98.9053
50 25 1 98.9706 100.64 99.1741
51 26 1 99.2655 102.037 101.581
52 26 1 98.7894 101.851 100.559
53 27 1 101.063 98.978 101.298
54 27 1 100.938 99.7171 100.373
55 28 1 97.9626 102.198 98.4611
56 28 1 97.5628 101.214 97.9331
57 29 1 102.969 101.938 100.732
58 29 1 97.3559 101.497 99.8046
59 30 1 99.0461 99.2456 99.4973
60 30 1 100.24 99.0389 99.4376
61 31 1 99.8646 99.8251 100.119
62 31 1 99.2706 99.8839 101.095
63 32 1 98.3383 100.483 98.1823
64 32 1 98.0603 100.171 99.3388
65 33 1 100.263 97.5638 102.83
66 33 1 99.7693 102.527 97.309
67 34 1 97.2721 99.3642 100.715
68 34 1 102.596 99.9705 100.133
69 35 1 102.915 100.722 102.179
70 35 1 103.049 100.649 97.3865
71 36 1 98.2311 99.1713 98.8319
72 36 1 98.5932 98.072 98.4008
73 37 1 102.195 101.558 102.193
74 37 1 97.0638 101.776 101.751
75 38 1 99.7778 97.8302 101.856
76 38 1 100.798 98.3463 102.277
77 39 1 97.7498 102.362 100.405
78 39 1 97.2863 102.47 99.2859
79 40 1 101.771 97.2886 101.267
80 40 1 101.108 97.2015 100.308
81 41 1 102.062 97.3247 102.43
82 41 1 102.163 98.1076 97.3962
83 42 1 100.462 98.8976 98.4298
84 42 1 100.517 100.135 98.253
85 43 1 97.5325 99.8596 97.5255
86 43 1 98.6057 100.394 97.1492
87 44 1 102.203 98.8078 98.2034
88 44 1 101.336 98.4584 98.9512
89 45 1 98.1119 99.9359 101.099
90 45 1 97.0589 100.533 101.202
91 46 1 99.9322 101.67 102.504
92 46 1 100.452 100.886 97.3142
93 47 1 103.173 102.971 100.885
94 47 1 97.2807 98.1675 100.92
95 48 1 102.818 97.6387 101.698
96 48 1 102.5 98.5036 102.432
97 49 1 102.571 101.898 99.678
98 49 1 101.581 102.535 99.5414