ITEM: TIMESTEP
0
ITEM: NUMBER OF ATOMS
200
ITEM: BOX BOUNDS pp pp pp
9.7017222714120251e+01 1.0298277728587975e+02
9.7017222714120251e+01 1.0298277728587975e+02
9.7017222714120251e+01 1.0298277728587975e+02
ITEM: ATOMS id mol type x y z
1 1 1 100.616 102.018 97.6255
2 1 1 99.5473 101.522 97.5031
3 2 1 101.853 101.553 98.8827
4 2 1 97.0319 101.785 98.6964
5 3 1 101.767 99.1472 97.1866
6 3 1 101.404 99.4826 98.2643
7 4 1 99.9787 98.7942 101.489
8 4 1 99.6554 97.8849 100.794
9 5 1 102.335 97.81 100.689
10 5 1 101.482 98.6209 100.471
11 6 1 97.4917 98.4992 99.9719
12 6 1 97.6826 98.3428 98.8473
13 7 1 97.8216 99.8872 102.306
14 7 1 102.675 99.6465 102.71
15 8 1 102.368 99.8056 98.9862
16 8 1 101.5 100.483 98.5851
17 9 1 101.939 99.5306 100.913
18 9 1 102.646 98.7007 101.387
19 10 1 97.1345 99.1754 98.3961
20 10 1 97.2861 99.433 99.4863
21 11 1 101.307 101.328 98.0011
22 11 1 102.418 100.892 98.2288
23 12 1 99.5849 98.2866 99.8019
24 12 1 100.348 98.8623 100.49
25 13 1 100.482 97.1685 97.9817
26 13 1 101.522 102.535 98.0965
27 14 1 99.198 97.5179 99.2092
28 14 1 99.4282 102.478 99.8478
29 15 1 99.0425 102.551 98.797
30 15 1 98.0847 97.3295 98.9806
31 16 1 100.442 101.999 99.7805
32 16 1 100.89 101.115 99.1397
33 17 1 100.807 101.203 101.382
34 17 1 99.9386 101.726 100.788
35 18 1 99.1325 102.821 100.917
36 18 1 98.553 97.1227 99.9548
37 19 1 99.3709 97.3775 98.1293
38 19 1 99.0366 97.3552 102.954
39 20 1 101.912 97.8641 99.6874
40 20 1 101.17 97.3001 98.8781
41 21 1 101.663 100.545 99.6818
42 21 1 100.643 101.039 100.178
43 22 1 101.591 99.3194 99.6315
44 22 1 102.511 98.6649 99.1959
45 23 1 98.8366 100.175 101.985
46 23 1 100.018 99.8013 101.987
47 24 1 100.965 102.081 100.756
48 24 1 101.382 102.279 101.826
49 25 1 97.9266 101.136 98.8697
50 25 1 99.0048 100.63 98.9939
51 26 1 99.3054 101.999 101.614
52 26 1 98.8329 101.805 100.525
53 27 1 101.036 99.0158 101.361
54 27 1 100.985 99.7151 100.418
55 28 1 98.059 102.165 98.4742
56 28 1 97.5446 101.282 97.8378
57 29 1 102.868 101.908 100.746
58 29 1 97.4784 101.476 99.7821
59 30 1 99.1116 99.2988 99.4868
60 30 1 100.268 98.9962 99.4209
61 31 1 99.9443 99.806 100.108
62 31 1 99.3891 99.89 101.139
63 32 1 98.3751 100.547 98.1217
64 32 1 98.1116 100.091 99.2311
65 33 1 100.227 97.5657 102.821
66 33 1 99.7608 102.602 97.3289
67 34 1 97.3459 99.338 100.663
68 34 1 102.479 99.9299 100.089
69 35 1 102.889 100.609 102.171
70 35 1 102.894 100.591 97.3473
71 36 1 98.2912 99.1874 98.767
72 36 1 98.6079 98.0783 98.4243
73 37 1 102.104 101.534 102.257
74 37 1 97.1964 101.672 101.745
75 38 1 99.8163 97.8477 101.859
76 38 1 100.876 98.3683 102.213
77 39 1 97.8644 102.338 100.449
78 39 1 97.4374 102.503 99.3709
79 40 1 101.709 97.1861 101.299
80 40 1 101.053 97.1231 100.356
81 41 1 101.926 97.3584 102.389
82 41 1 102.034 98.0711 97.3704
83 42 1 100.503 98.9416 98.4051
84 42 1 100.501 100.169 98.2881
85 43 1 97.6175 99.8004 97.4274
86 43 1 98.6943 100.331 97.0992
87 44 1 102.135 98.7685 98.1638
88 44 1 101.324 98.4748 98.9928
89 45 1 98.2454 99.909 101.156
90 45 1 97.2606 100.572 101.119
91 46 1 99.8673 101.695 102.495
92 46 1 100.464 100.971 97.3249
93 47 1 102.955 102.948 100.911
94 47 1 97.4217 98.0916 100.949
95 48 1 102.682 97.6251 101.658
96 48 1 102.177 98.4448 102.384
97 49 1 102.484 101.904 99.684
98 49 1 101.528 102.555 99.5755
99 50 1 98.8708 100.066 100.244
100 50 1 98.8658 100.911 101.106
101 51 1 100.064 97.3105 99.9541
102 51 1 100.302 97.9466 98.929
103 52 1 98.7334 99.5816 97.8669
104 52 1 99.3321 99.5552 102.792
105 53 1 97.6178 102.25 97.4759
106 53 1 98.0915 97.3023 97.9137
107 54 1 100.325 100.368 101.033
108 54 1 100.595 100.628 102.249
109 55 1 97.971 101.949 102.435
110 55 1 97.8088 100.837 102.779
111 56 1 102.409 97.1037 97.6685
112 56 1 102.311 102.582 98.8128
113 57 1 97.9998 102.978 102.766
114 57 1 102.968 97.6615 102.722
115 58 1 98.3834 98.1846 100.481
116 58 1 98.2218 99.2776 99.9909
117 59 1 98.8491 98.2204 102.4
118 59 1 98.6882 97.1226 101.939
119 60 1 98.2955 99.1012 102.764
120 60 1 98.9972 98.4009 97.4674
121 61 1 97.5718 100.324 100.12
122 61 1 102.735 100.791 99.3385
123 62 1 100.396 102.099 101.733
124 62 1 100.843 97.2488 101.92
125 63 1 100.745 98.885 97.3639
126 63 1 99.6661 99.1582 97.7621
127 64 1 99.5494 101.588 99.289
128 64 1 100.206 101.203 98.3444
129 65 1 99.0556 99.1289 101.831
130 65 1 98.8253 98.0301 101.369
131 66 1 97.0282 97.5938 99.0604
132 66 1 102.526 102.943 99.8857
133 67 1 101.537 101.604 100.013
134 67 1 101.444 100.627 100.718
135 68 1 102.412 102.427 101.715
136 68 1 101.967 102.457 100.586
137 69 1 97.2666 98.7864 102.279
138 69 1 97.9494 98.0424 102.982
139 70 1 101.692 102.205 97.079
140 70 1 100.614 102.487 102.652
141 71 1 97.8685 101.351 100.762
142 71 1 98.4603 100.967 99.8535
143 72 1 100.014 98.1342 97.745
144 72 1 99.4564 98.5916 98.7312
145 73 1 100.323 99.8587 97.2719
146 73 1 99.6638 100.625 102.722
147 74 1 101.968 101.11 97.2648
148 74 1 102.98 101.552 102.823
149 75 1 98.7815 102.429 97.7837
150 75 1 98.9881 102.275 102.6
151 76 1 98.924 101.463 98.3918
152 76 1 98.4614 101.499 97.3237
153 77 1 97.1089 97.964 97.9651
154 77 1 97.2538 102.792 98.3167
155 78 1 102.982 99.6556 101.647
156 78 1 102.187 100.466 101.401
157 79 1 101.694 98.233 101.492
158 79 1 101.962 99.3592 101.949
159 80 1 98.2665 102.085 101.453
160 80 1 98.1056 97.2351 101.018
161 81 2 98.5445 98.2825 99.4682
162 82 2 101.053 101.469 102.548
163 83 2 102.484 98.8598 100.222
164 84 2 100.174 102.932 101.115
165 85 2 100.728 97.8943 101.093
166 86 2 100.085 102.819 99.0043
167 87 2 100.747 98.0616 99.9367
168 88 2 97.8802 97.8392 101.939
169 89 2 101.153 100.063 101.576
170 90 2 98.8637 101.216 102.243
171 91 2 97.5421 97.4529 99.9874
172 92 2 99.6824 99.751 98.7198
173 93 2 99.75 100.903 101.677
174 94 2 102.417 99.8205 97.8317
175 95 2 100.776 99.8975 99.2439
176 96 2 102.939 98.786 97.3022
177 97 2 101.325 100.276 97.5132
178 98 2 97.977 98.8357 97.8241
179 99 2 99.1383 98.9732 100.708
180 100 2 98.3811 101.99 99.5733
181 101 2 101.815 101.528 101.164
182 102 2 97.3132 100.256 98.3715
183 103 2 102.506 100.961 100.402
184 104 2 99.5603 100.403 97.8449
185 105 2 102.784 102.592 102.739
186 106 2 99.5735 100.907 100.238
187 107 2 102.051 97.7303 98.4675
188 108 2 99.9924 100.591 99.3122
189 109 2 100.8 102.082 98.7858
190 110 2 99.9337 98.5798 102.7
191 111 2 98.0398 98.9374 101.574
192 112 2 99.855 102.163 98.2782
193 113 2 101.137 98.0527 98.0614
194 114 2 99.7656 102.822 102.153
195 115 2 102.513 101.995 97.8063
196 116 2 101.28 97.247 97.3075
197 117 2 98.0075 100.915 101.748
198 118 2 97.4119 102.793 101.887
199 119 2 100.979 99.4877 102.44
200 120 2 101.766 100.414 102.429
ITEM: TIMESTEP
1000
ITEM: NUMBER OF ATOMS
200
ITEM: BOX BOUNDS pp pp pp
9.6987245304022295e+01 1.0301275469597770e+02
9.7017222714120251e+01 1.0298277728587975e+02
9.7017222714120251e+01 1.0298277728587975e+02
ITEM: ATOMS id mol type x y z
1 1 1 100.59 101.948 97.5839
2 1 1 99.4733 101.466 97.4215
3 2 1 101.828 101.596 98.8865
4 2 1 97.0029 101.714 98.765
5 3 1 101.771 99.1904 97.231
6 3 1 101.463 99.4986 98.3461
7 4 1 100.027 98.7886 101.537
8 4 1 99.7291 97.9581 100.78
9 5 1 102.329 97.8015 100.64
10 5 1 101.46 98.6041 100.408
11 6 1 97.4276 98.4708 99.9107
12 6 1 97.6478 98.306 98.8006
13 7 1 97.7735 99.8839 102.359
14 7 1 102.661 99.6793 102.719
15 8 1 102.453 99.7397 98.9518
16 8 1 101.611 100.465 98.5993
17 9 1 101.9 99.4569 100.883
18 9 1 102.644 98.6873 101.388
19 10 1 97.1984 99.2032 98.4346
20 10 1 97.2288 99.4779 99.5806
21 11 1 101.3 101.289 98.043
22 11 1 102.442 100.918 98.2406
23 12 1 99.5446 98.2977 99.8095
24 12 1 100.304 98.8726 100.472
25 13 1 100.486 97.0998 97.9713
26 13 1 101.505 102.501 98.0815
27 14 1 99.2562 97.4795 99.2344
28 14 1 99.4353 102.426 99.9141
29 15 1 99.0277 102.499 98.8415
30 15 1 98.0826 97.2208 98.9813
31 16 1 100.518 101.977 99.7931
32 16 1 100.947 101.095 99.114
33 17 1 100.848 101.223 101.402
34 17 1 99.9611 101.686 100.745
35 18 1 99.164 102.941 100.963
36 18 1 98.5442 97.133 99.993
37 19 1 99.3927 97.3346 98.1336
38 19 1 99.0707 97.356 102.956
39 20 1 101.914 97.8584 99.6372
40 20 1 101.219 97.2486 98.9041
41 21 1 101.688 100.554 99.7102
42 21 1 100.642 101 100.161
43 22 1 101.681 99.3935 99.6048
44 22 1 102.56 98.6533 99.2276
45 23 1 98.8315 100.202 102.003
46 23 1 99.9767 99.792 101.985
47 24 1 100.95 102.091 100.78
48 24 1 101.485 102.281 101.837
49 25 1 97.9261 101.115 98.894
50 25 1 99.0219 100.6 98.9968
51 26 1 99.3747 102.025 101.538
52 26 1 98.8001 101.747 100.509
53 27 1 101.012 98.9534 101.367
54 27 1 100.987 99.7375 100.38
55 28 1 98.0468 102.181 98.503
56 28 1 97.5326 101.283 97.8777
57 29 1 102.934 101.923 100.715
58 29 1 97.4247 101.419 99.8146
59 30 1 99.0749 99.2872 99.4816
60 30 1 100.258 99.0093 99.3964
61 31 1 99.8991 99.7853 100.09
62 31 1 99.3361 99.9292 101.117
63 32 1 98.3532 100.472 98.1652
64 32 1 98.0651 100.105 99.2593
65 33 1 100.242 97.5374 102.905
66 33 1 99.7499 102.499 97.2627
67 34 1 97.3019 99.3124 100.699
68 34 1 102.477 99.9746 100.126
69 35 1 102.845 100.652 102.178
70 35 1 102.946 100.577 97.3725
71 36 1 98.3133 99.1963 98.7529
72 36 1 98.6097 98.0335 98.4272
73 37 1 102.153 101.496 102.202
74 37 1 97.1828 101.694 101.739
75 38 1 99.8436 97.8254 101.893
76 38 1 100.889 98.31 102.255
77 39 1 97.894 102.371 100.508
78 39 1 97.4137 102.476 99.4291
79 40 1 101.717 97.2024 101.302
80 40 1 101.106 97.1367 100.272
81 41 1 101.98 97.3127 102.44
82 41 1 102.078 98.1474 97.4065
83 42 1 100.53 98.9887 98.3654
84 42 1 100.605 100.187 98.2389
85 43 1 97.6055 99.7603 97.4665
86 43 1 98.6236 100.369 97.1367
87 44 1 102.223 98.8243 98.2292
88 44 1 101.399 98.5738 98.9792
89 45 1 98.1709 99.9189 101.124
90 45 1 97.1438 100.539 101.123
91 46 1 99.9024 101.691 102.484
92 46 1 100.454 100.918 97.3152
93 47 1 103.039 102.932 100.886
94 47 1 97.398 98.1507 100.962
95 48 1 102.714 97.6338 101.678
96 48 1 102.277 98.4961 102.388
97 49 1 102.539 101.911 99.6845
98 49 1 101.52 102.477 99.5852
99 50 1 98.8476 100.051 100.197
100 50 1 98.7788 100.889 101.103
101 51 1 100.051 97.3334 99.9915
102 51 1 100.257 97.8896 98.9316
103 52 1 98.6356 99.5155 97.7789
104 52 1 99.3244 99.5893 102.813
105 53 1 97.5614 102.279 97.5083
106 53 1 98.0985 97.3345 97.8362
107 54 1 100.298 100.401 101.008
108 54 1 100.56 100.624 102.231
109 55 1 97.8661 101.993 102.472
110 55 1 97.7667 100.874 102.774
111 56 1 102.416 97.111 97.7115
112 56 1 102.306 102.63 98.817
113 57 1 98.0189 102.993 102.766
114 57 1 103.028 97.6979 102.717
115 58 1 98.3551 98.179 100.458
116 58 1 98.1613 99.2521 100.022
117 59 1 98.8564 98.2659 102.41
118 59 1 98.6464 97.1992 101.926
119 60 1 98.3252 99.1161 102.744
120 60 1 98.9566 98.4512 97.4836
121 61 1 97.5027 100.373 100.125
122 61 1 102.682 100.783 99.3458
123 62 1 100.436 102.127 101.695
124 62 1 100.831 97.2869 101.944
125 63 1 100.794 98.8582 97.3576
126 63 1 99.7121 99.1974 97.7743
127 64 1 99.5711 101.572 99.2947
128 64 1 100.155 101.178 98.2691
129 65 1 99.0687 99.189 101.8
130 65 1 98.8706 98.124 101.379
131 66 1 96.9978 97.5978 99.1166
132 66 1 102.487 102.935 99.8979
133 67 1 101.572 101.546 100.078
134 67 1 101.451 100.602 100.755
135 68 1 102.513 102.481 101.715
136 68 1 101.991 102.429 100.622
137 69 1 97.2596 98.8061 102.312
138 69 1 97.9605 98.0701 102.95
139 70 1 101.783 102.218 97.0626
140 70 1 100.694 102.507 102.663
141 71 1 97.8304 101.344 100.808
142 71 1 98.4064 100.947 99.8476
143 72 1 99.9773 98.1661 97.8048
144 72 1 99.461 98.599 98.7683
145 73 1 100.364 99.8637 97.2491
146 73 1 99.5862 100.626 102.693
147 74 1 101.978 101.107 97.2214
148 74 1 103.012 101.552 102.836
149 75 1 98.7518 102.482 97.7753
150 75 1 98.8948 102.3 102.574
151 76 1 98.8891 101.427 98.3677
152 76 1 98.399 101.558 97.3276
153 77 1 97.094 97.9612 97.9234
154 77 1 97.2385 102.838 98.3521
155 78 1 103.04 99.6258 101.666
156 78 1 102.151 100.396 101.46
157 79 1 101.694 98.2216 101.513
158 79 1 101.968 99.3619 101.911
159 80 1 98.2684 102.135 101.48
160 80 1 98.095 97.296 101.044
161 81 2 98.5168 98.2441 99.4351
162 82 2 101.054 101.478 102.522
163 83 2 102.488 98.8733 100.246
164 84 2 100.213 102.944 101.091
165 85 2 100.76 97.9192 101.077
166 86 2 100.1 102.793 98.9994
167 87 2 100.748 98.0561 99.8336
168 88 2 97.8452 97.9106 101.92
169 89 2 101.089 99.987 101.54
170 90 2 98.7514 101.242 102.229
171 91 2 97.5427 97.4263 99.95
172 92 2 99.7127 99.7577 98.6769
173 93 2 99.6904 100.941 101.671
174 94 2 102.468 99.7908 97.8011
175 95 2 100.801 99.9185 99.2628
176 96 2 102.961 98.8214 97.3408
177 97 2 101.417 100.244 97.5303
178 98 2 97.9115 98.7853 97.803
179 99 2 99.1149 98.9626 100.688
180 100 2 98.3535 101.96 99.5579
181 101 2 101.912 101.522 101.213
182 102 2 97.2518 100.252 98.4359
183 103 2 102.494 100.974 100.436
184 104 2 99.503 100.354 97.8075
185 105 2 102.881 102.613 102.73
186 106 2 99.5547 100.876 100.204
187 107 2 102.081 97.8026 98.4795
188 108 2 100.024 100.602 99.2423
189 109 2 100.773 102.099 98.7144
190 110 2 99.9276 98.5882 102.724
191 111 2 98.0144 98.9505 101.571
192 112 2 99.7949 102.148 98.2424
193 113 2 101.128 98.0393 98.0806
194 114 2 99.7787 102.805 102.097
195 115 2 102.53 102.027 97.833
196 116 2 101.356 97.2898 97.3557
197 117 2 97.923 100.832 101.733
198 118 2 97.4705 102.877 101.855
199 119 2 101.014 99.4303 102.435
200 120 2 101.72 100.394 102.434
ITEM: TIMESTEP
2000
ITEM: NUMBER OF ATOMS
200
ITEM: BOX BOUNDS pp pp pp
9.6956966615944111e+01 1.0304303338405589e+02
9.7017222714120251e+01 1.0298277728587975e+02
9.7017222714120251e+01 1.0298277728587975e+02
ITEM: ATOMS id mol type x y z
1 1 1 100.626 101.96 97.5975
2 1 1 99.4747 101.513 97.4576
3 2 1 101.868 101.568 98.9339
4 2 1 96.9815 101.652 98.7502
5 3 1 101.84 99.174 97.2375
6 3 1 101.452 99.4607 98.3526
7 4 1 100.026 98.8223 101.53
8 4 1 99.7261 97.9445 100.772
9 5 1 102.36 97.817 100.668
10 5 1 101.511 98.5854 100.428
11 6 1 97.4438 98.5224 99.8809
12 6 1 97.6455 98.2684 98.7614
13 7 1 97.7602 99.8666 102.41
14 7 1 102.698 99.7401 102.694
15 8 1 102.464 99.7433 99.0335
16 8 1 101.631 100.446 98.6654
17 9 1 101.937 99.5053 100.879
18 9 1 102.71 98.7403 101.403
19 10 1 97.1398 99.1476 98.4765
20 10 1 97.2624 99.5194 99.6022
21 11 1 101.308 101.237 98.0584
22 11 1 102.44 100.909 98.2284
23 12 1 99.5834 98.3612 99.7942
24 12 1 100.399 98.8339 100.501
25 13 1 100.511 97.1264 98.0232
26 13 1 101.52 102.478 98.1205
27 14 1 99.2055 97.4853 99.3088
28 14 1 99.3872 102.4 99.9128
29 15 1 99.0016 102.545 98.8681
30 15 1 98.0662 97.2679 98.9831
31 16 1 100.37 101.949 99.8567
32 16 1 100.897 101.095 99.123
33 17 1 100.963 101.252 101.446
34 17 1 100.002 101.64 100.886
35 18 1 99.1429 102.953 100.957
36 18 1 98.4875 97.0841 99.9914
37 19 1 99.3854 97.3614 98.165
38 19 1 99.073 97.3936 102.977
39 20 1 101.918 97.8301 99.6333
40 20 1 101.177 97.3159 98.8961
41 21 1 101.752 100.535 99.7087
42 21 1 100.68 100.922 100.118
43 22 1 101.674 99.3081 99.6554
44 22 1 102.529 98.6051 99.1863
45 23 1 98.8211 100.171 101.968
46 23 1 99.9849 99.7888 102.004
47 24 1 100.979 102.139 100.78
48 24 1 101.429 102.343 101.865
49 25 1 97.8985 101.155 98.9225
50 25 1 98.9845 100.595 98.9413
51 26 1 99.2416 102.011 101.585
52 26 1 98.7476 101.776 100.518
53 27 1 101.035 99.0285 101.31
54 27 1 100.979 99.7263 100.376
55 28 1 97.9906 102.138 98.4729
56 28 1 97.4854 101.241 97.887
57 29 1 102.974 101.947 100.682
58 29 1 97.4222 101.491 99.7777
59 30 1 99.1237 99.3108 99.4486
60 30 1 100.304 98.9925 99.3758
61 31 1 99.9297 99.7792 100.114
62 31 1 99.3623 99.9477 101.126
63 32 1 98.2818 100.457 98.0951
64 32 1 98.1487 100.097 99.242
65 33 1 100.293 97.5581 102.81
66 33 1 99.7928 102.586 97.3385
67 34 1 97.3265 99.4215 100.713
68 34 1 102.526 99.9777 100.1
69 35 1 102.927 100.684 102.157
70 35 1 102.956 100.594 97.3493
71 36 1 98.3118 99.1437 98.7184
72 36 1 98.5722 98.0158 98.3476
73 37 1 102.166 101.519 102.221
74 37 1 97.0756 101.621 101.682
75 38 1 99.8071 97.8189 101.865
76 38 1 100.87 98.3619 102.214
77 39 1 97.7837 102.364 100.422
78 39 1 97.3478 102.511 99.3425
79 40 1 101.792 97.252 101.365
80 40 1 101.147 97.2164 100.387
81 41 1 101.973 97.3529 102.4
82 41 1 102.136 98.1012 97.3958
83 42 1 100.503 98.9414 98.3234
84 42 1 100.637 100.167 98.3165
85 43 1 97.6072 99.8501 97.5186
86 43 1 98.6277 100.342 97.0916
87 44 1 102.224 98.8015 98.2242
88 44 1 101.333 98.5528 98.9621
89 45 1 98.1544 99.9907 101.012
90 45 1 97.1039 100.532 101.097
91 46 1 99.8885 101.645 102.49
92 46 1 100.431 100.916 97.3432
93 47 1 103.09 102.963 100.891
94 47 1 97.346 98.1437 100.903
95 48 1 102.792 97.6603 101.651
96 48 1 102.318 98.4718 102.423
97 49 1 102.519 101.912 99.6752
98 49 1 101.516 102.527 99.5975
99 50 1 98.8956 100.074 100.181
100 50 1 98.8085 100.89 101.109
101 51 1 100.024 97.2726 99.9769
102 51 1 100.281 97.9486 98.9475
103 52 1 98.6744 99.5088 97.8095
104 52 1 99.2612 99.551 102.75
105 53 1 97.5559 102.193 97.4908
106 53 1 98.0371 97.2971 97.8085
107 54 1 100.323 100.452 101.029
108 54 1 100.608 100.61 102.215
109 55 1 97.8392 101.979 102.455
110 55 1 97.7428 100.867 102.829
111 56 1 102.436 97.0572 97.6513
112 56 1 102.381 102.58 98.7828
113 57 1 97.9869 102.977 102.76
114 57 1 103.116 97.7233 102.683
115 58 1 98.331 98.1674 100.411
116 58 1 98.1953 99.3033 100.068
117 59 1 98.8412 98.1495 102.347
118 59 1 98.6288 97.088 101.913
119 60 1 98.312 99.0262 102.678
120 60 1 98.9727 98.3635 97.474
121 61 1 97.5 100.458 100.086
122 61 1 102.697 100.821 99.314
123 62 1 100.44 102.106 101.75
124 62 1 100.839 97.2827 101.918
125 63 1 100.733 98.8446 97.2784
126 63 1 99.6543 99.1481 97.7204
127 64 1 99.5019 101.563 99.2491
128 64 1 100.162 101.211 98.2916
129 65 1 99.0224 99.0918 101.768
130 65 1 98.7866 98.0352 101.314
131 66 1 96.9677 97.5598 99.0805
132 66 1 102.556 102.933 99.9564
133 67 1 101.584 101.542 100.014
134 67 1 101.477 100.596 100.72
135 68 1 102.47 102.462 101.719
136 68 1 102.005 102.439 100.616
137 69 1 97.2892 98.777 102.31
138 69 1 98.0341 98.0553 102.958
139 70 1 101.774 102.243 97.0448
140 70 1 100.655 102.527 102.675
141 71 1 97.7843 101.296 100.769
142 71 1 98.4201 100.953 99.835
143 72 1 99.9712 98.1117 97.6928
144 72 1 99.4484 98.532 98.6959
145 73 1 100.312 99.8866 97.368
146 73 1 99.6059 100.583 102.747
147 74 1 102.02 101.154 97.2877
148 74 1 103.028 101.556 102.815
149 75 1 98.746 102.457 97.8341
150 75 1 98.8893 102.271 102.646
151 76 1 98.8471 101.487 98.3936
152 76 1 98.4127 101.521 97.3246
153 77 1 97.0271 97.978 97.9061
154 77 1 97.1968 102.821 98.307
155 78 1 103.071 99.6653 101.711
156 78 1 102.16 100.388 101.492
157 79 1 101.742 98.2833 101.507
158 79 1 101.896 99.3828 101.955
159 80 1 98.1851 102.035 101.412
160 80 1 98.0738 97.2206 100.989
161 81 2 98.5236 98.257 99.4041
162 82 2 101.079 101.46 102.586
163 83 2 102.622 98.8994 100.269
164 84 2 100.187 102.961 101.095
165 85 2 100.784 97.9785 101.092
166 86 2 100.073 102.821 99.0158
167 87 2 100.781 98.0362 99.8487
168 88 2 97.857 97.8608 101.878
169 89 2 101.137 100.036 101.576
170 90 2 98.7517 101.224 102.247
171 91 2 97.4973 97.4505 99.9725
172 92 2 99.7007 99.7026 98.6715
173 93 2 99.6652 100.937 101.739
174 94 2 102.549 99.7852 97.8828
175 95 2 100.824 99.9232 99.3387
176 96 2 102.984 98.9194 97.3315
177 97 2 101.52 100.226 97.5658
178 98 2 97.8811 98.8389 97.7574
179 99 2 99.2351 99.0259 100.601
180 100 2 98.3129 101.957 99.5442
181 101 2 101.968 101.516 101.149
182 102 2 97.2238 100.267 98.4777
183 103 2 102.556 100.987 100.411
184 104 2 99.4912 100.375 97.8784
185 105 2 102.874 102.622 102.773
186 106 2 99.5575 100.933 100.214
187 107 2 102.062 97.7389 98.4786
188 108 2 99.9776 100.579 99.2569
189 109 2 100.796 102.066 98.7656
190 110 2 99.8796 98.5716 102.641
191 111 2 97.9843 98.9565 101.495
192 112 2 99.7958 102.188 98.2827
193 113 2 101.091 98.0481 98.0442
194 114 2 99.7201 102.785 102.137
195 115 2 102.57 101.99 97.8616
196 116 2 101.327 97.2742 97.3461
197 117 2 97.9392 100.879 101.749
198 118 2 97.4194 102.849 101.86
199 119 2 100.933 99.4934 102.433
200 120 2 101.746 100.459 102.496
ITEM: TIMESTEP
3000
ITEM: NUMBER OF ATOMS
200
ITEM: BOX BOUNDS pp pp pp
9.6926383621991647e+01 1.0307361637800835e+02
9.7017222714120251e+01 1.0298277728587975e+02
9.7017222714120251e+01 1.0298277728587975e+02
ITEM: ATOMS id mol type x y z
1 1 1 100.613 101.956 97.6016
2 1 1 99.4763 101.56 97.4854
3 2 1 101.871 101.627 98.8749
4 2 1 96.9351 101.704 98.7984
5 3 1 101.876 99.1541 97.1701
6 3 1 101.407 99.3944 98.2821
7 4 1 100.063 98.8437 101.524
8 4 1 99.7055 97.9629 100.766
9 5 1 102.394 97.8563 100.659
10 5 1 101.515 98.6007 100.422
11 6 1 97.3571 98.52 99.9147
12 6 1 97.62 98.3365 98.8104
13 7 1 97.7091 99.8821 102.382
14 7 1 102.706 99.6958 102.672
15 8 1 102.475 99.7353 98.9766
16 8 1 101.589 100.396 98.5671
17 9 1 101.946 99.506 100.885
18 9 1 102.682 98.7126 101.401
19 10 1 97.0613 99.2207 98.4189
20 10 1 97.1967 99.5739 99.5614
21 11 1 101.296 101.286 98.0554
22 11 1 102.455 100.893 98.3249
23 12 1 99.573 98.2669 99.801
24 12 1 100.38 98.8007 100.515
25 13 1 100.49 97.1199 98.0143
26 13 1 101.514 102.428 98.103
27 14 1 99.1325 97.5464 99.1925
28 14 1 99.3787 102.491 99.873
29 15 1 98.9879 102.541 98.854
30 15 1 98.0215 97.3057 98.9743
31 16 1 100.489 101.929 99.8112
32 16 1 100.967 101.031 99.1519
33 17 1 100.919 101.163 101.261
34 17 1 99.9804 101.745 100.819
35 18 1 99.1421 102.915 100.948
36 18 1 98.4872 97.0832 99.959
37 19 1 99.4049 97.329 98.2019
38 19 1 99.0306 97.3408 103.039
39 20 1 101.95 97.8287 99.6216
40 20 1 101.185 97.2693 98.8691
41 21 1 101.758 100.464 99.6496
42 21 1 100.695 100.805 100.15
43 22 1 101.708 99.3664 99.6318
44 22 1 102.549 98.6248 99.1889
45 23 1 98.7477 100.101 101.981
46 23 1 99.978 99.8103 101.944
47 24 1 101.028 102.125 100.762
48 24 1 101.468 102.314 101.898
49 25 1 97.9147 101.16 98.9525
50 25 1 98.9995 100.647 99.0223
51 26 1 99.2898 102.02 101.623
52 26 1 98.8237 101.832 100.533
53 27 1 101.057 99.0093 101.338
54 27 1 100.953 99.7166 100.394
55 28 1 98.0109 102.224 98.5048
56 28 1 97.527 101.31 97.9578
57 29 1 102.939 102.036 100.678
58 29 1 97.3849 101.489 99.8023
59 30 1 99.1084 99.2688 99.4739
60 30 1 100.238 98.9876 99.4698
61 31 1 99.9442 99.8064 100.131
62 31 1 99.294 99.8586 101.132
63 32 1 98.3273 100.568 98.1165
64 32 1 98.0853 100.165 99.2639
65 33 1 100.257 97.6157 102.821
66 33 1 99.7536 102.57 97.3164
67 34 1 97.3553 99.2836 100.668
68 34 1 102.656 99.9457 100.237
69 35 1 102.926 100.643 102.201
70 35 1 102.943 100.626 97.414
71 36 1 98.2735 99.2153 98.8028
72 36 1 98.5692 98.1115 98.4082
73 37 1 102.148 101.524 102.215
74 37 1 97.0862 101.683 101.726
75 38 1 99.9038 97.8557 101.852
76 38 1 100.9 98.3768 102.276
77 39 1 97.7835 102.329 100.46
78 39 1 97.3347 102.533 99.3566
79 40 1 101.725 97.2294 101.309
80 40 1 101.104 97.1468 100.289
81 41 1 101.945 97.32 102.42
82 41 1 102.158 98.0724 97.3573
83 42 1 100.489 98.8826 98.4396
84 42 1 100.555 100.093 98.2087
85 43 1 97.5663 99.848 97.5866
86 43 1 98.5955 100.33 97.1039
87 44 1 102.249 98.7777 98.1934
88 44 1 101.358 98.587 98.9836
89 45 1 98.1554 99.9502 101.018
90 45 1 97.1255 100.528 101.153
91 46 1 99.9109 101.654 102.522
92 46 1 100.505 100.919 97.3558
93 47 1 103.082 102.996 100.904
94 47 1 97.2896 98.1687 100.945
95 48 1 102.751 97.6444 101.695
96 48 1 102.345 98.5258 102.408
97 49 1 102.525 101.898 99.7165
98 49 1 101.551 102.492 99.5449
99 50 1 98.8809 100.042 100.133
100 50 1 98.7599 100.814 101.038
101 51 1 100.028 97.3595 99.9902
102 51 1 100.277 97.8561 98.9157
103 52 1 98.6866 99.5451 97.8658
104 52 1 99.2813 99.5719 102.806
105 53 1 97.5478 102.29 97.4829
106 53 1 98.0346 97.3678 97.8268
107 54 1 100.252 100.358 101.006
108 54 1 100.581 100.684 102.151
109 55 1 97.8439 101.985 102.415
110 55 1 97.7179 100.859 102.841
111 56 1 102.398 97.0664 97.6677
112 56 1 102.373 102.581 98.7962
113 57 1 97.9605 102.975 102.757
114 57 1 103.103 97.6825 102.718
115 58 1 98.2584 98.2515 100.519
116 58 1 98.1782 99.2852 99.9534
117 59 1 98.908 98.1352 102.342
118 59 1 98.5986 97.0741 101.873
119 60 1 98.2938 99.0552 102.715
120 60 1 98.9916 98.3823 97.4523
121 61 1 97.4703 100.407 100.153
122 61 1 102.737 100.818 99.4082
123 62 1 100.454 102.081 101.703
124 62 1 100.898 97.2447 101.97
125 63 1 100.796 98.8909 97.4018
126 63 1 99.7108 99.1598 97.7691
127 64 1 99.5844 101.575 99.2698
128 64 1 100.177 101.199 98.2817
129 65 1 99.0604 99.0428 101.859
130 65 1 98.8151 97.9951 101.352
131 66 1 96.8959 97.6664 99.0688
132 66 1 102.635 102.961 99.9117
133 67 1 101.554 101.495 100.021
134 67 1 101.58 100.548 100.699
135 68 1 102.487 102.44 101.647
136 68 1 102.004 102.464 100.566
137 69 1 97.2742 98.7636 102.311
138 69 1 97.9772 98.0512 102.962
139 70 1 101.788 102.309 96.9918
140 70 1 100.618 102.489 102.697
141 71 1 97.6982 101.331 100.815
142 71 1 98.4083 100.958 99.9351
143 72 1 99.9899 98.104 97.7371
144 72 1 99.4748 98.5847 98.7092
145 73 1 100.314 99.8736 97.2171
146 73 1 99.6263 100.678 102.73
147 74 1 102.023 101.186 97.2531
148 74 1 103.087 101.552 102.799
149 75 1 98.7622 102.456 97.7824
150 75 1 98.8715 102.312 102.602
151 76 1 98.8373 101.533 98.4403
152 76 1 98.3897 101.571 97.3286
153 77 1 96.9792 98.0089 97.9127
154 77 1 97.1448 102.857 98.296
155 78 1 103.165 99.6121 101.597
156 78 1 102.218 100.378 101.495
157 79 1 101.755 98.2739 101.552
158 79 1 102.012 99.3704 101.916
159 80 1 98.2434 102.097 101.412
160 80 1 98.0227 97.2477 101.002
161 81 2 98.4528 98.284 99.504
162 82 2 101.091 101.509 102.592
163 83 2 102.604 98.9039 100.234
164 84 2 100.235 102.957 101.109
165 85 2 100.781 97.9619 101.138
166 86 2 100.074 102.793 99.0924
167 87 2 100.79 98.0688 99.8521
168 88 2 97.8341 97.842 101.872
169 89 2 101.138 100.037 101.537
170 90 2 98.7587 101.229 102.237
171 91 2 97.5244 97.4547 99.9566
172 92 2 99.6686 99.7244 98.6702
173 93 2 99.6563 100.881 101.667
174 94 2 102.5 99.7637 97.7841
175 95 2 100.795 99.8172 99.2274
176 96 2 103.054 98.879 97.3175
177 97 2 101.396 100.143 97.4861
178 98 2 97.8695 98.8319 97.7748
179 99 2 99.147 98.9771 100.566
180 100 2 98.3477 101.928 99.5974
181 101 2 101.969 101.501 101.154
182 102 2 97.1851 100.315 98.498
183 103 2 102.617 101.016 100.444
184 104 2 99.4798 100.407 97.8044
185 105 2 102.915 102.6 102.719
186 106 2 99.5782 100.931 100.212
187 107 2 102.091 97.7351 98.473
188 108 2 100.019 100.517 99.2122
189 109 2 100.768 102.04 98.7829
190 110 2 99.9315 98.6463 102.667
191 111 2 98.0454 98.9348 101.512
192 112 2 99.8148 102.188 98.2975
193 113 2 101.126 98.0559 98.0643
194 114 2 99.7585 102.835 102.158
195 115 2 102.594 101.979 97.8513
196 116 2 101.273 97.305 97.3159
197 117 2 97.9204 100.865 101.764
198 118 2 97.4356 102.805 101.893
199 119 2 101.075 99.4297 102.461
200 120 2 101.711 100.417 102.469
ITEM: TIMESTEP
4000
ITEM: NUMBER OF ATOMS
200
ITEM: BOX BOUNDS pp pp pp
9.6895493263840024e+01 1.0310450673615998e+02
9.7017222714120251e+01 1.0298277728587975e+02
9.7017222714120251e+01 1.0298277728587975e+02
ITEM: ATOMS id mol type x y z
1 1 1 100.59 101.964 97.5615
2 1 1 99.4501 101.561 97.5283
3 2 1 101.911 101.648 98.8434
4 2 1 96.9445 101.697 98.7435
5 3 1 101.907 99.1488 97.2152
6 3 1 101.481 99.4651 98.2772
7 4 1 100.092 98.8318 101.585
8 4 1 99.7064 97.941 100.828
9 5 1 102.463 97.7953 100.665
10 5 1 101.568 98.5186 100.381
11 6 1 97.3449 98.486 99.8053
12 6 1 97.6302 98.2103 98.6637
13 7 1 97.673 99.9082 102.51
14 7 1 102.668 99.7117 102.653
15 8 1 102.484 99.7854 99.0059
16 8 1 101.625 100.482 98.5802
17 9 1 102.001 99.4829 100.861
18 9 1 102.801 98.7856 101.431
19 10 1 97.1172 99.1325 98.4974
20 10 1 97.1312 99.5266 99.6364
21 11 1 101.399 101.376 97.967
22 11 1 102.503 100.898 98.2556
23 12 1 99.5549 98.2674 99.7934
24 12 1 100.309 98.8174 100.529
25 13 1 100.489 97.109 97.9848
26 13 1 101.568 102.514 98.1684
27 14 1 99.2164 97.5121 99.1569
28 14 1 99.3516 102.466 99.8518
29 15 1 98.9715 102.493 98.8304
30 15 1 98.015 97.2174 98.937
31 16 1 100.457 101.92 99.8334
32 16 1 100.963 101.048 99.1762
33 17 1 100.926 101.141 101.396
34 17 1 100.028 101.646 100.779
35 18 1 99.1409 102.9 100.887
36 18 1 98.5097 97.1029 99.922
37 19 1 99.4201 97.2938 98.1111
38 19 1 99.0421 97.3921 102.962
39 20 1 101.953 97.8262 99.6289
40 20 1 101.204 97.2961 98.8798
41 21 1 101.726 100.473 99.6507
42 21 1 100.713 100.877 100.213
43 22 1 101.78 99.3668 99.6799
44 22 1 102.587 98.6497 99.1927
45 23 1 98.7636 100.202 102.034
46 23 1 99.9442 99.83 101.925
47 24 1 101.004 102.111 100.8
48 24 1 101.495 102.33 101.884
49 25 1 97.9084 101.138 98.9558
50 25 1 98.9522 100.614 99.12
51 26 1 99.2848 102.028 101.61
52 26 1 98.8446 101.843 100.508
53 27 1 101.109 98.9696 101.231
54 27 1 100.947 99.77 100.345
55 28 1 97.9532 102.153 98.4529
56 28 1 97.4811 101.196 97.9268
57 29 1 102.932 101.968 100.73
58 29 1 97.3426 101.495 99.8141
59 30 1 99.0068 99.2677 99.5466
60 30 1 100.178 99.0492 99.4512
61 31 1 99.8754 99.7938 100.115
62 31 1 99.2423 99.9626 101.105
63 32 1 98.3253 100.45 98.2415
64 32 1 98.1162 99.9807 99.3572
65 33 1 100.305 97.5527 102.88
66 33 1 99.7161 102.605 97.2931
67 34 1 97.1728 99.4642 100.726
68 34 1 102.568 100.013 100.125
69 35 1 103.003 100.69 102.179
70 35 1 102.958 100.589 97.3482
71 36 1 98.2427 99.167 98.6646
72 36 1 98.6288 98.0596 98.2917
73 37 1 102.179 101.486 102.198
74 37 1 97.0082 101.582 101.677
75 38 1 99.9091 97.8337 101.861
76 38 1 100.964 98.2707 102.188
77 39 1 97.7612 102.354 100.474
78 39 1 97.2703 102.52 99.3657
79 40 1 101.755 97.2499 101.291
80 40 1 101.129 97.1999 100.333
81 41 1 101.987 97.4039 102.393
82 41 1 102.284 98.087 97.3851
83 42 1 100.546 98.9415 98.496
84 42 1 100.552 100.131 98.2369
85 43 1 97.5555 99.8584 97.6429
86 43 1 98.5683 100.41 97.1625
87 44 1 102.261 98.7828 98.1906
88 44 1 101.44 98.609 98.9993
89 45 1 98.1073 99.8954 101.056
90 45 1 97.0899 100.522 101.115
91 46 1 99.9122 101.68 102.528
92 46 1 100.47 100.918 97.3194
93 47 1 103.149 102.974 100.917
94 47 1 97.2892 98.1527 100.872
95 48 1 102.789 97.6604 101.674
96 48 1 102.432 98.528 102.402
97 49 1 102.545 101.912 99.6873
98 49 1 101.543 102.53 99.5158