LAMMPS (23 Jun 2022)
OMP_NUM_THREADS environment is not set. Defaulting to 1 thread. (src/comm.cpp:98)
  using 1 OpenMP thread(s) per MPI task
Reading data file ...
  orthogonal box = (0 0 0) to (200 200 200)
  1 by 1 by 1 MPI processor grid
  reading atoms ...
  200 atoms
  scanning bonds ...
  1 = max bonds/atom
  reading bonds ...
  80 bonds
Finding 1-2 1-3 1-4 neighbors ...
  special bond factors lj:    0        0        0       
  special bond factors coul:  0        0        0       
     1 = max # of 1-2 neighbors
     0 = max # of 1-3 neighbors
     0 = max # of 1-4 neighbors
     1 = max # of special neighbors
  special bonds CPU = 0.000 seconds
  read_data CPU = 0.014 seconds
Generated 0 of 1 mixed pair_coeff terms from geometric mixing rule
Neighbor list info ...
  update every 1 steps, delay 0 steps, check yes
  max neighbors/atom: 2000, page size: 100000
  master list distance cutoff = 5.5
  ghost atom cutoff = 5.5
  binsize = 2.75, bins = 73 73 73
  1 neighbor lists, perpetual/occasional/extra = 1 0 0
  (1) pair lj/cut, perpetual
      attributes: half, newton on
      pair build: half/bin/newton
      stencil: half/bin/3d
      bin: standard
Setting up Verlet run ...
  Unit style    : lj
  Current step  : 0
  Time step     : 0.002
Per MPI rank memory allocation (min/avg/max) = 7.938 | 7.938 | 7.938 Mbytes
   Step          Temp         Density         PotEng        Enthalpy        Press           Pxx            Pyy            Pzz            Pxy            Pxz            Pyz             Lx             Ly             Lz             Xy             Yz             Xz          Density    
         0   1              2.75e-05       2.2913944e-28  2.4875         2.4875e-05     2.4540872e-05  2.7057051e-05  2.3027077e-05 -8.5634887e-07  1.0219777e-06  4.891355e-07   200            200            200            0              0              0              2.75e-05     
       100   2.5460692      0.00020837979  4.84198       -3.056329      -0.0022160845  -0.0064438455  -9.1411273e-05 -0.00011299676 -0.00011418486  0.00013728392 -2.0090717e-05  101.8253       101.8253       101.8253       0              0              0              0.00020837979
       200   4.2640173      0.00048094567  1.6515352      17.205317      0.0040179672   0.0058416615   0.0033636118   0.0028486284  -4.2624545e-05 -8.577244e-05   7.8886212e-05  77.050516      77.050516      77.050516      0              0              0              0.00048094567
       300   3.4112947      0.00083253544  0.10328167     9.1540987      0.0029967186   0.003602044    0.0028709329   0.0025171789  -3.5540758e-05 -7.9367361e-05  5.3261413e-05  64.171174      64.171174      64.171174      0              0              0              0.00083253544
       400   2.6570871      0.0012518408   1.5342272      0.88373031    -0.0052534063  -0.0047307117  -0.0058704756  -0.0051590316  -0.00040885327 -0.00028526655 -0.00022248421  56.013304      56.013304      56.013304      0              0              0              0.0012518408 
       500   1.8199939      0.0017357762   1.6528132      11.411343      0.011112422    0.0099853984   0.012972607    0.010379259   -0.00052219626  0.00063053836  0.00018298707  50.23152       50.23152       50.23152       0              0              0              0.0017357762 
       600   1.8902082      0.0022800043   0.34397634     2.2612137     -0.0018735382  -0.0021050156  -0.0023614198  -0.0011541793   0.00013594718 -0.0004327065  -0.00013852361  45.866507      45.866507      45.866507      0              0              0              0.0022800043 
       700   2.0041241      0.002874366    0.25905352     2.710785      -0.0014095464  -0.0001432746  -0.0019800411  -0.0021053234  -0.00061218291 -0.0001585843   0.00012730418  42.458066      42.458066      42.458066      0              0              0              0.002874366  
       800   1.0099865      0.0035283418   0.97060565     7.7292626      0.016843829    0.01552089     0.019906844    0.015103755   -0.0011224714   0.0010482116   1.1308437e-05  39.653727      39.653727      39.653727      0              0              0              0.0035283418 
       900   0.95998399     0.0042287103   0.67622568    -1.3743837     -0.013391116   -0.013177823   -0.016012519   -0.010983007    0.00084615368 -0.0013756367  -0.00026545401  37.331168      37.331168      37.331168      0              0              0              0.0042287103 
      1000   1.4243295      0.004974219    0.046130513    3.9901566      0.0082219968   0.0079760863   0.010004821    0.0066850826  -0.0011528612   0.00054338655  0.00031905326  35.36437       35.36437       35.36437       0              0              0              0.004974219  
      1100   0.92587792     0.0057765751   0.33842956     5.3371767      0.018993769    0.020660175    0.020472801    0.015848331   -0.0014509863   0.00089190621 -0.00019927683  33.644759      33.644759      33.644759      0              0              0              0.0057765751 
      1200   0.6950148      0.0066112228   0.67472159    -2.2828319     -0.024009937   -0.029344579   -0.025153331   -0.017531899    0.0014324443  -0.0015700162   4.1497211e-06  32.164759      32.164759      32.164759      0              0              0              0.0066112228 
      1300   1.0153015      0.0074956069   0.23030316     5.0152098      0.022279459    0.024894596    0.024309985    0.017633794   -0.002240018    0.001086557    2.9269449e-05  30.846457      30.846457      30.846457      0              0              0              0.0074956069 
      1400   1.0389949      0.0084288773  -0.019042144    3.328473       0.013768304    0.018759343    0.012346568    0.010199003   -0.00092586804  0.0002519629  -0.00070977853  29.663176      29.663176      29.663176      0              0              0              0.0084288773 
      1500   0.88402923     0.0093834091   0.39295474    -0.99259745    -0.023074364   -0.03731317    -0.019235399   -0.012674524    0.00062842096 -0.00035269441  0.0015057241   28.621167      28.621167      28.621167      0              0              0              0.0093834091 
      1600   0.84534503     0.010397803    0.45564034     5.438632       0.035175902    0.04622952     0.033414395    0.025883792   -0.0025402149  -0.00046130616 -0.0010591251   27.658398      27.658398      27.658398      0              0              0              0.010397803  
      1700   1.0787507      0.01144722     0.036274145    1.3929288     -0.0026368227  -0.0049088589  -0.0030245398   2.2930525e-05  0.0009454445   0.0018878376   0.00054263496  26.785981      26.785981      26.785981      0              0              0              0.01144722   
      1800   1.1831781      0.012516527    0.080908398    1.0181626     -0.0094288036  -0.024137071    8.5642984e-05 -0.0042349831   0.00045782623  0.00078459713  0.0013385788   26.000375      26.000375      26.000375      0              0              0              0.012516527  
      1900   0.91281653     0.013651512    0.42645145     5.6622139      0.048070495    0.068650615    0.041818328    0.033742541   -0.0076524918  -0.002182577   -0.00057130023  25.258873      25.258873      25.258873      0              0              0              0.013651512  
      2000   0.99430904     0.014802015    0.2519748     -0.24709743    -0.026685051   -0.044671772   -0.021745498   -0.013637883    0.006110209    0.0063864709  -0.0026038803   24.586721      24.586721      24.586721      0              0              0              0.014802015  
      2100   1.2364364      0.015985866   -0.043017744    2.7920504      0.014382729    0.011416491    0.018507768    0.013223927   -0.003348653    0.0014127206   0.0011525967   23.964158      23.964158      23.964158      0              0              0              0.015985866  
      2200   0.98317396     0.017232643    0.17150065     4.8112283      0.04969801     0.071337516    0.043819197    0.033937318   -0.0057574121  -0.0047775878   0.00076211474  23.371698      23.371698      23.371698      0              0              0              0.017232643  
      2300   0.82986618     0.018475838    0.35985389    -1.1138726     -0.045556408   -0.072736449   -0.038214426   -0.025718348    0.0056674859   0.004373476    0.00049632923  22.835271      22.835271      22.835271      0              0              0              0.018475838  
      2400   1.0363714      0.019775398    0.054060445    3.7484567      0.038608981    0.047431202    0.036544669    0.031851073   -0.0072351829  -0.0011114651  -0.0019037593   22.323681      22.323681      22.323681      0              0              0              0.019775398  
      2500   1.0096767      0.021123257   -0.027033913    3.5076509      0.038938654    0.047544073    0.035745984    0.033525906   -0.005350101   -0.0039150692  -0.0017157179   21.838389      21.838389      21.838389      0              0              0              0.021123257  
      2600   0.87122403     0.022457163    0.23902265    -0.70494011    -0.045818016   -0.065013012   -0.032032787   -0.040408248    0.0042400849   0.0064214741   0.0078375738   21.39715       21.39715       21.39715       0              0              0              0.022457163  
      2700   0.92788875     0.023867635    0.17674429     4.5637313      0.065139398    0.078931175    0.058528931    0.057958088   -0.0066695834  -0.0020332249  -0.0016416569   20.967071      20.967071      20.967071      0              0              0              0.023867635  
      2800   1.0612659      0.025298053   -0.053426804    1.9433143      0.0094937096   0.0067800649   0.013928127    0.0077729364  -0.006242171    0.00035033698 -0.0022669797   20.564202      20.564202      20.564202      0              0              0              0.025298053  
      2900   1.0531745      0.026725875    0.066387057    0.52371356    -0.027079055   -0.030100499   -0.024576635   -0.026560032    0.0040672974   0.0042214378   0.0039479274   20.191268      20.191268      20.191268      0              0              0              0.026725875  
      3000   0.94712599     0.028241067    0.22253999     4.9430889      0.084901976    0.10044802     0.081641139    0.072616769    0.0021094829   0.0031113761  -0.0037603143   19.823509      19.823509      19.823509      0              0              0              0.028241067  
      3100   1.0550403      0.029740946    0.048091956    0.75066562    -0.023578461   -0.041143988   -0.01442755    -0.015163845   -0.01267386    -0.0030308423  -0.0022675881   19.484502      19.484502      19.484502      0              0              0              0.029740946  
      3200   1.1678822      0.03126822    -0.086135786    2.0886205      0.012271132    0.015261732    0.015411488    0.0061401751   0.0028799299   0.0014683629   0.0037930032   19.161956      19.161956      19.161956      0              0              0              0.03126822   
      3300   1.0051677      0.032869076    0.059418089    4.473366       0.087065256    0.093232566    0.089770608    0.078192594   -0.0037543953   0.002939827   -0.0005670815   18.845676      18.845676      18.845676      0              0              0              0.032869076  
      3400   0.91990286     0.034441643    0.11456602    -0.14817885    -0.05121472    -0.07555314    -0.031645696   -0.046445325   -0.010979903   -0.0034870496  -0.00049827166  18.554373      18.554373      18.554373      0              0              0              0.034441643  
      3500   1.0106857      0.036081508   -0.054829445    2.6757543      0.040087714    0.044305933    0.041970177    0.033987031    0.0025402038   0.002803428   -5.3340758e-05  18.268911      18.268911      18.268911      0              0              0              0.036081508  
      3600   0.96496777     0.037772519   -0.071393167    3.341914       0.067753348    0.072915508    0.068102714    0.062241822   -0.0064104587   0.0049536671  -0.00021826245  17.992116      17.992116      17.992116      0              0              0              0.037772519  
      3700   0.87201382     0.039426636    0.07712654    -0.18735631    -0.056127884   -0.05544858    -0.066633036   -0.046302036    0.0012150965  -0.0049804862   0.00085404852  17.736897      17.736897      17.736897      0              0              0              0.039426636  
      3800   0.94808628     0.041164302   -0.0077105717   3.2260153      0.068059825    0.071000384    0.080943307    0.052235782    0.0065639822   0.014902695   -0.0086405896   17.483725      17.483725      17.483725      0              0              0              0.041164302  
      3900   1.0233345      0.042930558   -0.12031346     2.6193584      0.047315135    0.038734075    0.048133344    0.055077985   -0.019720613    0.012734907    0.0085911697   17.240587      17.240587      17.240587      0              0              0              0.042930558  
      4000   0.9808901      0.044667       0.019433004    0.19334996    -0.052384708   -0.053393199   -0.04116448    -0.062596445   -0.0031608031  -0.021228643   -0.0011488544   17.014217      17.014217      17.014217      0              0              0              0.044667     
      4100   1.0397763      0.046496487   -0.028063258    3.9772854      0.10370756     0.12285577     0.096391861    0.091875057    0.0042562268   0.012176076   -0.0048405858   16.788073      16.788073      16.788073      0              0              0              0.046496487  
      4200   1.090203       0.04831375    -0.11860182     1.8296734      0.014105302    0.0016697686   0.019117085    0.021529053   -0.0088902428   0.0023693609   0.0043352107   16.57489       16.57489       16.57489       0              0              0              0.04831375   
      4300   1.0628353      0.050134875   -0.073101578    0.8349644     -0.030911149   -0.022217417   -0.025922777   -0.044593252    0.010179655   -0.00096722174  0.0017682213   16.371718      16.371718      16.371718      0              0              0              0.050134875  
      4400   1.0222849      0.052054359   -0.074481665    3.6995516      0.1063931      0.094092262    0.13174777     0.093339267   -0.01285379     0.023475685    0.0027993596   16.167959      16.167959      16.167959      0              0              0              0.052054359  
      4500   0.99285373     0.053939924   -0.11057352     1.2181471     -0.0075081223  -0.014227831   -0.01009167     0.0017951335   0.00073500901  0.005537966   -0.0016799219   15.977327      15.977327      15.977327      0              0              0              0.053939924  
      4600   0.98588001     0.055853557   -0.14735399     1.1215513     -0.010283177    0.018513452   -0.024282992   -0.025079992   -0.0014162096  -0.0082034279  -0.010003504    15.792733      15.792733      15.792733      0              0              0              0.055853557  
      4700   0.95959468     0.057864541   -0.18352763     3.0764338      0.096148058    0.093789132    0.12006487     0.074590168   -0.0077249865   0.014271728   -0.0087732192   15.607621      15.607621      15.607621      0              0              0              0.057864541  
      4800   0.94274058     0.05983235    -0.20365653     0.73993175    -0.025208567   -0.030126116   -0.029094682   -0.016404904    0.014347136   -0.0027050978   0.0029345132   15.434606      15.434606      15.434606      0              0              0              0.05983235   
      4900   0.96160956     0.061844194   -0.23963606     1.2412744      0.0025698053   0.0021506571   0.0035007952   0.0020579636  -0.0092001843   0.0028010743   0.00035539394  15.26539       15.26539       15.26539       0              0              0              0.061844194  
      5000   0.98834258     0.063917757   -0.29337158     2.7543321      0.091379285    0.112822       0.10930787     0.052007983   -0.0059502431   0.012767875   -0.0083410035   15.098497      15.098497      15.098497      0              0              0              0.063917757  
      5100   1.0079228      0.06594746    -0.31389681     0.63045904    -0.033571387   -0.05704339    -0.038923668   -0.0047471025  -0.0030709046  -0.0086389487  -0.031650435    14.941982      14.941982      14.941982      0              0              0              0.06594746   
      5200   1.0234719      0.068023317   -0.30892736     1.9062425      0.042523105    0.038184197    0.054788043    0.034597074   -0.017752078   -0.0027548521   0.023180875    14.788415      14.788415      14.788415      0              0              0              0.068023317  
      5300   1.0322502      0.070152865   -0.34023637     2.3172545      0.071227959    0.071761432    0.083694842    0.058227604    0.011619709    0.0084161369  -0.0053560148   14.637236      14.637236      14.637236      0              0              0              0.070152865  
      5400   1.0569085      0.072254522   -0.39251261     0.65744155    -0.034648135   -0.055805179   -0.05508328     0.0069440549   0.011511626   -0.0093396486   0.012540658    14.493921      14.493921      14.493921      0              0              0              0.072254522  
      5500   1.0341287      0.074425633   -0.39730732     2.0980167      0.064404345    0.053975458    0.098118119    0.041119458    0.025070146   -0.00073217045  0.0042494749   14.351591      14.351591      14.351591      0              0              0              0.074425633  
      5600   1.0517736      0.076629375   -0.4977383      1.9077583      0.058219139    0.062143986    0.057249143    0.055264287   -0.01398209     0.0036305497  -0.01586748     14.212674      14.212674      14.212674      0              0              0              0.076629375  
      5700   1.0178755      0.078790781   -0.50729556     0.77595507    -0.016899082   -0.025695922   -0.0036270707  -0.021374253   -0.0050107993  -0.003106645    0.0061870023   14.081506      14.081506      14.081506      0              0              0              0.078790781  
      5800   1.0424429      0.081021484   -0.6176914      1.9841229      0.077041734    0.087280129    0.077138103    0.066706971    0.00028093263 -0.0050400163  -0.013227176    13.951069      13.951069      13.951069      0              0              0              0.081021484  
      5900   0.97066952     0.083245939   -0.59276554     1.2882249      0.032713092    0.040019056    0.06271898    -0.0045987612  -0.037550981    0.0069131148   0.017097035    13.825681      13.825681      13.825681      0              0              0              0.083245939  
      6000   0.89952091     0.085479531   -0.53710264     0.55623234    -0.019364997    0.0010550915  -0.038142161   -0.021007922    0.0097417442  -0.0083803634  -0.0017089495   13.704195      13.704195      13.704195      0              0              0              0.085479531  
      6100   0.93628538     0.087831265   -0.62341862     1.715766       0.075197827    0.053026093    0.095220023    0.077347364    0.0030293137  -0.00052314535 -0.025842898    13.580774      13.580774      13.580774      0              0              0              0.087831265  
      6200   0.91784163     0.090142608   -0.57932751     1.3398128      0.045010801    0.062024309    0.037848542    0.035159551   -0.025487074    0.019554023    0.0013384676   13.463693      13.463693      13.463693      0              0              0              0.090142608  
      6300   0.94772579     0.092464342   -0.57389753     0.58839757    -0.021198345   -0.0096499958  -0.056975897    0.003030858    0.0021084671   0.0016959631  -0.026120089    13.350047      13.350047      13.350047      0              0              0              0.092464342  
      6400   1.0450968      0.094902188   -0.6588542      1.5986514      0.060193746    0.027817839    0.088502725    0.064260673    0.0084713056  -0.00063772355 -0.017315758    13.234742      13.234742      13.234742      0              0              0              0.094902188  
      6500   1.0499495      0.097299308   -0.59988225     1.1521467      0.016362147    0.010633865    0.045046609   -0.0065940321   0.031892657    0.022541096    0.025742675    13.125151      13.125151      13.125151      0              0              0              0.097299308  
      6600   1.1069918      0.099679938   -0.64933224     0.89845822    -0.0094600649  -0.012129686   -0.012417852   -0.0038326566  -0.015963055    0.014716951    0.0060484892   13.01982       13.01982       13.01982       0              0              0              0.099679938  
      6700   1.1087571      0.10214154    -0.683851       1.7936523      0.07639105     0.038346529    0.10665503     0.084171594   -0.027158978    0.031301596   -0.00081788668  12.914376      12.914376      12.914376      0              0              0              0.10214154   
      6800   1.020124       0.10461712    -0.63348596     0.89340715     0.00041447505  0.015019501   -0.032926403    0.019150327   -0.0082124186  -0.049390306   -0.0074597216   12.811696      12.811696      12.811696      0              0              0              0.10461712   
      6900   0.99469228     0.10711772    -0.68509846     1.1183203      0.031048613    0.058124158    0.0090485239   0.025973158    0.016891432   -0.022266573   -0.0087337827   12.711217      12.711217      12.711217      0              0              0              0.10711772   
      7000   1.0032907      0.10965797    -0.79562979     1.4747559      0.077057086    0.070495886    0.11171656     0.048958817   -0.0048720802   0.033736173   -0.0034292059   12.612296      12.612296      12.612296      0              0              0              0.10965797   
      7100   0.93375943     0.11215824    -0.76718561     0.33783178    -0.029428137   -0.086461942   -0.0035701556   0.0017476862  -0.010087138   -0.025238387   -0.021679144    12.517872      12.517872      12.517872      0              0              0              0.11215824   
      7200   0.94769467     0.11472527    -0.84214358     0.91862913     0.036121609    0.051839504    0.040255568    0.016269755    0.055008544    0.059358387    0.021138845    12.423802      12.423802      12.423802      0              0              0              0.11472527   
      7300   0.98250977     0.11734869    -0.93878815     0.8874924      0.038392728    0.043551723    0.047248733    0.024377728   -0.011999391   -0.019698797   -0.0058899757   12.330522      12.330522      12.330522      0              0              0              0.11734869   
      7400   0.95539099     0.11993085    -0.90403549     0.59879031     0.008384774    0.0063953247  -0.002538555    0.021297552   -0.040549445   -0.039306544    0.0098859782   12.241386      12.241386      12.241386      0              0              0              0.11993085   
      7500   0.95531233     0.12253773    -0.89119146     1.2427746      0.078887833    0.031801689    0.14899962     0.055862193    0.049385465    0.068172738   -0.07687209     12.153955      12.153955      12.153955      0              0              0              0.12253773   
      7600   1.0338483      0.1251291     -0.98109963     1.1968951      0.072230891    0.060419073    0.15618832     8.5277316e-05 -0.0020615525  -0.0086135238   0.00047451951  12.069468      12.069468      12.069468      0              0              0              0.1251291    
      7700   1.0262828      0.12772522    -0.94573798     0.70571802     0.013902179    0.026081372    0.0090276995   0.0065974667  -0.029451252   -0.0051691209   0.033523943    11.987134      11.987134      11.987134      0              0              0              0.12772522   
      7800   1.0443004      0.13043715    -0.97825075     0.3572676     -0.026455022   -0.053545871    0.0042369865  -0.03005618     0.026728946    0.0028495753  -0.012518036    11.903476      11.903476      11.903476      0              0              0              0.13043715   
      7900   1.0212341      0.13321637    -0.96710937     1.3348518      0.094192357    0.034434696    0.12699523     0.12114715     0.0021617512  -0.0064396379   0.018847515    11.820115      11.820115      11.820115      0              0              0              0.13321637   
      8000   0.99776914     0.13588526    -0.95960008     0.69056766     0.019888328    0.093283553   -0.030560279   -0.0030582902   0.040543048   -0.025173495   -0.021296842    11.742217      11.742217      11.742217      0              0              0              0.13588526   
      8100   0.97091538     0.13865773    -0.9582457      0.52684725     0.0045381093   0.043329355   -0.0017415971  -0.027973429    0.0052418105   0.021196215   -0.023717224    11.663428      11.663428      11.663428      0              0              0              0.13865773   
      8200   0.98304527     0.14150802    -1.0040178      0.57793458     0.014762794    0.027373334    0.038245519   -0.02133047     0.0021883641   0.0011149666   0.024742046    11.584587      11.584587      11.584587      0              0              0              0.14150802   
      8300   1.0115125      0.14436391    -1.0638907      0.25663033    -0.024825533   -0.039242729    0.0037622992  -0.038996167   -0.00060858097 -0.013284949   -0.046571644    11.507686      11.507686      11.507686      0              0              0              0.14436391   
      8400   1.0464945      0.14721355    -1.1325944      0.49508901     0.0088047465  -0.001749894    0.024528267    0.0036358659  -0.029246624   -0.018412772   -0.037641708    11.43295       11.43295       11.43295       0              0              0              0.14721355   
      8500   0.99110423     0.150047      -1.0776499      1.0078687      0.082702575   -0.020240561    0.1135866      0.15476169    -0.062666661    0.0045108978   0.028363212    11.360526      11.360526      11.360526      0              0              0              0.150047     
      8600   1.029271       0.15285743    -1.1688073      0.37189476     0.00062742061  0.01593393    -0.024469415    0.010417747   -0.043174607    0.033987095    0.0039620759   11.290471      11.290471      11.290471      0              0              0              0.15285743   
      8700   1.0026586      0.15576824    -1.1694632      0.36595925     0.0055162507   0.019857282   -0.015871535    0.012563005    0.044646001    0.012495866   -0.038542911    11.2197        11.2197        11.2197        0              0              0              0.15576824   
      8800   1.0021169      0.15871733    -1.2142807      0.29968258     0.0026410284  -0.040599403   -0.064401065    0.11292355     0.002324661    0.0038735584  -0.039719314    11.149775      11.149775      11.149775      0              0              0              0.15871733   
      8900   0.99901034     0.16168467    -1.2608969      0.44800442     0.03202509     0.070039198    0.083413978   -0.057377906   -0.06336907    -0.037303844    0.010119363    11.081144      11.081144      11.081144      0              0              0              0.16168467   
      9000   1.0060627      0.16462322    -1.3130364      0.78251471     0.088896922    0.14707531    -0.017333146    0.13694861     0.029314773    0.0025213815  -0.025181894    11.014815      11.014815      11.014815      0              0              0              0.16462322   
      9100   0.97453439     0.16750976    -1.3057137      0.074312001   -0.011339941   -0.019414347    0.076513726   -0.091119201   -0.079820563   -0.014146818   -0.04903876     10.951179      10.951179      10.951179      0              0              0              0.16750976   
      9200   0.99118463     0.17045599    -1.3589364      0.62446684     0.078109158    0.086567187    0.13030628     0.017454002    0.058775662   -0.03315008     0.031227509    10.887717      10.887717      10.887717      0              0              0              0.17045599   
      9300   0.93348969     0.17340957    -1.2927206      0.43626151     0.052929138    0.089233458   -0.012013553    0.081567509    0.040837297   -0.0080863498   0.050311224    10.825548      10.825548      10.825548      0              0              0              0.17340957   
      9400   0.94499345     0.17643487    -1.3077461     -0.50976598    -0.098229735   -0.15157099    -0.081500545   -0.06161767    -0.047507232    0.037826981   -0.028731795    10.763316      10.763316      10.763316      0              0              0              0.17643487   
      9500   1.0071873      0.17964094    -1.3846238      0.45168654     0.054395815    0.03533533     0.015752145    0.11209997    -0.023798076    0.023783891    0.0042751494   10.6989        10.6989        10.6989        0              0              0              0.17964094   
      9600   1.0133397      0.18276635    -1.3823947      1.1399232      0.16779752     0.16853101     0.16564074     0.1692208      0.025918876   -0.040739642    0.046256599    10.637563      10.637563      10.637563      0              0              0              0.18276635   
      9700   1.0401839      0.18574595    -1.4222559      0.098617463   -0.0053361479  -0.0045408273  -0.04388233     0.032414713   -0.024802757    0.0092401113   0.0080566442   10.580376      10.580376      10.580376      0              0              0              0.18574595   
      9800   1.0225202      0.18889099    -1.4226454      0.24209532     0.0238053      0.094108675   -0.052991938    0.030299164    0.0093070456  -0.0042067211  -0.052704775    10.521326      10.521326      10.521326      0              0              0              0.18889099   
      9900   0.92800611     0.19219428    -1.322135      -0.1405312     -0.035546385   -0.13348313    -0.042331661    0.069175635    0.10409488    -0.032784066    0.048224512    10.4607        10.4607        10.4607        0              0              0              0.19219428   
     10000   0.98501773     0.19555202    -1.4260581     -0.26059951    -0.05416442    -0.077875521   -0.013315491   -0.071302249   -0.061542432    0.014789935   -0.055518906    10.400482      10.400482      10.400482      0              0              0              0.19555202   
     10100   1.0016025      0.1989511     -1.4641814      0.29176738     0.047216       0.097429028    0.072300416   -0.028081445   -0.024273602   -0.05242786     0.014369845    10.34091       10.34091       10.34091       0              0              0              0.1989511    
     10200   1.045288       0.20214844    -1.5423653      0.74938688     0.13445809     0.12053058     0.17907605     0.10376764    -0.015748312   -0.055002349    0.032021594    10.2861        10.2861        10.2861        0              0              0              0.20214844   
     10300   1.0382683      0.20518705    -1.5713848     -0.3196295     -0.055560954   -0.097646409    0.026928878   -0.095965329   -0.020213149    0.040604531    0.031187797    10.235072      10.235072      10.235072      0              0              0              0.20518705   
     10400   1.0216295      0.20848301    -1.6078025      0.13304325     0.040950565    0.053556807   -0.061498124    0.13079301    -0.01982106     0.053137893   -0.082584228    10.180849      10.180849      10.180849      0              0              0              0.20848301   
     10500   1.0342803      0.21174847    -1.6923293      0.29714667     0.085818326    0.0082577056   0.068943088    0.18025418    -0.085850809    0.0016894117   0.0042345709   10.128243      10.128243      10.128243      0              0              0              0.21174847   
     10600   0.96747847     0.21486929    -1.657145      -0.74857711    -0.10458152    -0.15755007    -0.0597418     -0.096452672   -0.050763191   -0.066638275    0.040528596    10.078969      10.078969      10.078969      0              0              0              0.21486929   
     10700   0.96753534     0.21821293    -1.7144376     -0.11545423     0.03073567     0.028045369    0.018342133    0.045819508   -0.12544387     0.016686164    0.033237228    10.027224      10.027224      10.027224      0              0              0              0.21821293   
     10800   0.90473246     0.22155017    -1.6482772     -0.086423844    0.042606151    0.014842975    0.17258478    -0.0596093      0.0079847871   0.014118733   -0.041220023    9.9766223      9.9766223      9.9766223      0              0              0              0.22155017   
     10900   0.89459097     0.22492285    -1.6236778     -0.099874769    0.038569368    0.017225751    0.066424314    0.032058038    0.015393994    0.017015569   -0.058333516    9.9265051      9.9265051      9.9265051      0              0              0              0.22492285   
     11000   0.92322383     0.22820921    -1.6114097     -0.014347606    0.045465611    0.094118551   -0.020379892    0.062658175   -0.053444401   -0.0078699442  -0.089391332    9.8786251      9.8786251      9.8786251      0              0              0              0.22820921   
     11100   0.99461087     0.23159132    -1.6357647     -0.12925656     0.0046426425  -0.0073384805   0.066315318   -0.04504891     0.112123      -0.0012076326   0.031806294    9.8303006      9.8303006      9.8303006      0              0              0              0.23159132   
     11200   1.047309       0.23506088    -1.6372907     -0.57466765    -0.10694965    -0.23495057    -0.076252362   -0.0096460229  -0.097333631    0.050127731    0.017060002    9.7816948      9.7816948      9.7816948      0              0              0              0.23506088   
     11300   1.1308336      0.23867549    -1.7132376      0.15504574     0.03916755    -0.0030516622   0.087654243    0.03290007    -0.024228786    0.034611679   -0.01778232     9.732064       9.732064       9.732064       0              0              0              0.23867549   
     11400   1.1270833      0.24215256    -1.6968566     -0.059571931   -0.0098814126   0.08293268    -0.0070245307  -0.10555239     0.070272809    0.066836427    0.036999709    9.6852583      9.6852583      9.6852583      0              0              0              0.24215256   
     11500   1.0557457      0.24564054    -1.639921       0.028050153    0.020604905    0.030125316    0.0046063255   0.027083072   -0.10125975     0.013803602   -0.093723906    9.6391976      9.6391976      9.6391976      0              0              0              0.24564054   
     11600   1.0800157      0.24912751    -1.7705066     -0.13891173     0.004455174    0.028387887   -0.048772175    0.033749811   -0.12287803     0.073154438   -0.060274085    9.5940136      9.5940136      9.5940136      0              0              0              0.24912751   
     11700   1.0302442      0.25260709    -1.80282       -0.26510753     1.6764e-05     0.083310384    0.026518284   -0.10977838     0.033057965   -0.020013207    0.079753478    9.5497584      9.5497584      9.5497584      0              0              0              0.25260709   
     11800   1.0069205      0.25608112    -1.8665142     -0.9484724     -0.13613901    -0.14901516    -0.13735308    -0.12204878    -0.010740881    0.019401747   -0.00053318483  9.5063772      9.5063772      9.5063772      0              0              0              0.25608112   
     11900   0.95851694     0.2598476     -1.8753945     -0.39907187     0.010804013   -0.013192347   -0.019507771    0.065112157   -0.047884047   -0.057142725   -0.090195934    9.4602219      9.4602219      9.4602219      0              0              0              0.2598476    
     12000   0.96840799     0.26357668    -1.9458065     -0.49251537     0.0019030625  -0.11865617     0.2831698     -0.15880444     0.1018901      0.030902788   -0.034670542    9.4153954      9.4153954      9.4153954      0              0              0              0.26357668   
     12100   1.005058       0.26706775    -2.0354792     -0.30785133     0.055253593    0.08032116    -0.034987321    0.12042694     0.031048373    0.083382835   -0.077591447    9.3741898      9.3741898      9.3741898      0              0              0              0.26706775   
     12200   1.0055226      0.2704233     -2.0689787      0.1348703      0.17285126     0.18395621     0.029751194    0.30484639     0.13980159    -0.091229303    0.068718202    9.3352551      9.3352551      9.3352551      0              0              0              0.2704233    
     12300   0.98426028     0.27381498    -2.0731333     -0.16321275     0.10975302     0.077536945    0.14184557     0.10987655     0.095626509   -0.023366463    0.015787434    9.2965503      9.2965503      9.2965503      0              0              0              0.27381498   
     12400   0.91109971     0.27731344    -1.9886412     -0.95301706    -0.081729863   -0.14583166     0.058427227   -0.15778516     0.032688653   -0.043852928    0.020100441    9.2572911      9.2572911      9.2572911      0              0              0              0.27731344   
     12500   0.9006259      0.2811598     -1.9669222     -0.8917905     -0.068769757   -0.057656119   -0.11864823    -0.030004919   -0.043160606   -0.042646518    0.069605486    9.2148829      9.2148829      9.2148829      0              0              0              0.2811598    
     12600   0.91381485     0.28534038    -1.9522099     -0.95902848    -0.096156383   -0.062896607   -0.11370669    -0.11186585    -0.062593344   -0.046672691   -0.017772458    9.1696582      9.1696582      9.1696582      0              0              0              0.28534038   
     12700   1.0567171      0.28943365    -2.0960713     -1.0137491     -0.13019991    -0.12482833    -0.026618012   -0.23915337    -0.02448093     0.076931399    0.045025992    9.1262261      9.1262261      9.1262261      0              0              0              0.28943365   
     12800   1.0827493      0.29337846    -2.0651688     -0.37599341     0.019515547    0.047643285    0.055356785   -0.04445343    -0.086654543    0.059133435   -0.036667804    9.0851371      9.0851371      9.0851371      0              0              0              0.29337846   
     12900   1.058379       0.29714667    -1.9836806     -0.23405675     0.045920823    0.051079104   -0.0046138629   0.091297228   -0.010448688   -0.068941277    0.11408533     9.0465697      9.0465697      9.0465697      0              0              0              0.29714667   
     13000   1.0367399      0.30094219    -1.9362885     -0.80155475    -0.11288083    -0.051036353   -0.15380639    -0.13379975     0.024309811    0.10204871    -0.017161917    9.0083766      9.0083766      9.0083766      0              0              0              0.30094219   
     13100   1.0075808      0.30502884    -1.9042498     -0.0038451068   0.10997409     0.028018868    0.061190884    0.24071252    -0.042989742   -0.015000485    0.065916949    8.9679654      8.9679654      8.9679654      0              0              0              0.30502884   
     13200   1.0301382      0.3089877     -1.9677641     -0.71283802    -0.079369143   -0.016921887    0.006285543   -0.22747109    -0.047075988    0.10441396    -0.035844191    8.9295004      8.9295004      8.9295004      0              0              0              0.3089877    
     13300   1.0188693      0.31289735    -1.9909365     -0.42398158     0.013167993   -0.032240704    0.026287158    0.045457525    0.011214774   -0.056486137    0.04236222     8.8921531      8.8921531      8.8921531      0              0              0              0.31289735   
     13400   1.0246321      0.31673411    -2.0438356     -0.32292013     0.055184292    0.12676842     0.12242818    -0.08364372     0.091010084   -0.10693206     0.044638213    8.8561021      8.8561021      8.8561021      0              0              0              0.31673411   
     13500   1.0129401      0.32047013    -2.0733746     -0.6719479     -0.032159579    0.08076042    -0.10300423    -0.074234929    0.044071734    0.075232912   -0.0526971      8.8215529      8.8215529      8.8215529      0              0              0              0.32047013   
     13600   0.9751408      0.32440032    -2.0685095     -0.69954188    -0.025489036    0.07331713    -0.17935933     0.029575094   -0.12193442     0.01014035     0.12546334     8.7857829      8.7857829      8.7857829      0              0              0              0.32440032   
     13700   0.95232202     0.32839622    -2.074925      -0.47455136     0.053448886   -0.085243154    0.3269118     -0.081321991   -0.032137148    0.031150211   -0.11529347     8.7500025      8.7500025      8.7500025      0              0              0              0.32839622   
     13800   0.99236552     0.33226383    -2.1633673     -1.0416612     -0.10855948    -0.049049481   -0.10942923    -0.16719971     0.25108667     0.027413659   -0.064100906    8.7159194      8.7159194      8.7159194      0              0              0              0.33226383   
     13900   0.94555257     0.33651129    -2.1169235     -0.71889581    -0.004041051    0.036692464    0.067243904   -0.11605952    -0.093417596    0.011493387    0.053493734    8.6790931      8.6790931      8.6790931      0              0              0              0.33651129   
     14000   1.0737904      0.34070497    -2.314408      -0.70109609     0.0033078678  -0.084882119    0.027369098    0.067436625   -0.066341398    0.048370422    0.084779881    8.6433361      8.6433361      8.6433361      0              0              0              0.34070497   
     14100   1.038836       0.34466326    -2.2739189     -0.16764514     0.17415241     0.28833974     0.02724233     0.20687516     0.21717419     0.080393592    0.025787887    8.6101205      8.6101205      8.6101205      0              0              0              0.34466326   
     14200   1.0041232      0.34844234    -2.2622572     -1.5416689     -0.24646454    -0.29756319    -0.20147945    -0.24035098    -0.29525344    -0.072025014   -0.075395616    8.5788799      8.5788799      8.5788799      0              0              0              0.34844234   
     14300   1.0224179      0.35275244    -2.3692248     -1.2164828     -0.11968465    -0.21174551    -0.11654176    -0.030766686    0.067649259   -0.093887688    0.031768091    8.5437963      8.5437963      8.5437963      0              0              0              0.35275244   
     14400   0.91047471     0.35720022    -2.2873403     -0.38583551     0.17620406     0.15199327     0.25411404     0.12250486     0.048305723    0.019987177    0.024049394    8.5081862      8.5081862      8.5081862      0              0              0              0.35720022   
     14500   0.96445582     0.36131099    -2.4205642     -1.6253307     -0.2116024     -0.24988098    -0.14002331    -0.24490289     0.094858835   -0.071913927   -0.15983662     8.4757961      8.4757961      8.4757961      0              0              0              0.36131099   
     14600   0.95446268     0.36574395    -2.4406543     -0.86796425     0.049260544   -0.11424882     0.23464519     0.027385267    0.090802429   -0.0087029408   0.075097362    8.4414135      8.4414135      8.4414135      0              0              0              0.36574395   
     14700   1.0424864      0.37010265    -2.5873577     -1.6421485     -0.20547487    -0.28755956     0.0033333498  -0.3321984      0.15106222     0.0033070486  -0.015133539    8.4081444      8.4081444      8.4081444      0              0              0              0.37010265   
     14800   0.93857363     0.37470298    -2.4462051     -1.4833618     -0.14919236    -0.23276793     0.10792675    -0.32273589     0.10644479     0.21628029    -0.083962939    8.373593       8.373593       8.373593       0              0              0              0.37470298   
     14900   0.95476195     0.37941717    -2.4753346     -0.33472156     0.24683875     0.13792989     0.19766449     0.40492188     0.045437851   -0.1372734      0.010977292    8.3387682      8.3387682      8.3387682      0              0              0              0.37941717   
     15000   1.0572913      0.3834963     -2.6167696     -1.3061863     -0.093232806   -0.23970327    -0.0083373434  -0.03165781     0.036388758   -0.16792791    -0.039924451    8.3090971      8.3090971      8.3090971      0              0              0              0.3834963    
     15100   0.96872722     0.38759575    -2.4626454     -0.26157868     0.26611666     0.20375721     0.17386599     0.42072677     0.070175991    0.16230771    -0.0052564315   8.2796992      8.2796992      8.2796992      0              0              0              0.38759575   
     15200   1.0767527      0.39156134    -2.5999119     -0.86838159     0.044309379    0.0019822581   0.20404465    -0.073098766    0.0033335319  -0.15416993     0.15278007     8.251653       8.251653       8.251653       0              0              0              0.39156134   
     15300   1.0254323      0.39566186    -2.5104421     -1.8526021     -0.31387414    -0.49544371    -0.064740075   -0.38143862     0.10910036    -0.081789893   -0.049082347    8.2230481      8.2230481      8.2230481      0              0              0              0.39566186   
     15400   1.0367648      0.40030411    -2.529976      -1.1957746     -0.077575338   -0.087872724   -0.16058105     0.015727764   -0.1374554     -0.074908832    0.041963078    8.1911374      8.1911374      8.1911374      0              0              0              0.40030411   
     15500   0.99605244     0.40483484    -2.4843718     -1.0948687     -0.035737795    0.079244109    0.071207518   -0.25766501    -0.019121529    0.065563903   -0.12804859     8.1604655      8.1604655      8.1604655      0              0              0              0.40483484   
     15600   0.98988947     0.40935724    -2.4965741     -1.26463       -0.09134838     0.10314886    -0.11448385    -0.26271015    -0.038234504   -0.024813615   -0.030862737    8.1303031      8.1303031      8.1303031      0              0              0              0.40935724   
     15700   0.95841379     0.41364911    -2.4722905     -1.3218347     -0.10528379    -0.21700516    -0.10773887     0.0088926794  -0.12060148     0.21697537     0.096100781    8.1020863      8.1020863      8.1020863      0              0              0              0.41364911   
     15800   1.0649158      0.41819844    -2.6537257     -1.3362964     -0.10339296    -0.16125622    -0.19682157     0.047898918   -0.013538699    0.1364184     -0.053681023    8.0725999      8.0725999      8.0725999      0              0              0              0.41819844   
     15900   0.9607769      0.42266264    -2.5246016     -0.50341307     0.22563614     0.46849646     0.19821768     0.010194275    0.0069843938  -0.13731276     0.076553796    8.044078       8.044078       8.044078       0              0              0              0.42266264   
     16000   0.95306564     0.42667869    -2.5488945     -1.3942522     -0.10388002    -0.32254895     0.22286438    -0.21195548     0.10577672     0.16704556     0.15518        8.0187605      8.0187605      8.0187605      0              0              0              0.42667869   
     16100   1.035304       0.43134591    -2.7203883     -1.4329119     -0.10105843     0.038772583   -0.077330653   -0.26461721     0.096900909    0.028339314    0.12723312     7.9897342      7.9897342      7.9897342      0              0              0              0.43134591   
     16200   0.97350179     0.43620579    -2.686324      -1.2823916     -0.019438536    0.23225239    -0.10940664    -0.18116136    -0.074766378   -0.047787436    0.090916104    7.9599514      7.9599514      7.9599514      0              0              0              0.43620579   
     16300   0.93272123     0.44066227    -2.6762003     -1.449122      -0.066102573   -0.29999485     0.12047543    -0.018788307    0.037792571    0.16601732     0.0079823353   7.9330271      7.9330271      7.9330271      0              0              0              0.44066227   
     16400   0.94531426     0.44504167    -2.7355275     -1.336193      -0.0046717353  -0.063901616   -0.083959238    0.13384565    -0.16816917    -0.048269437   -0.054257704    7.9069198      7.9069198      7.9069198      0              0              0              0.44504167   
     16500   0.90010515     0.4495042     -2.687592      -1.2402701      0.042463829    0.24066848     0.2126246     -0.32590159     0.12237848     0.03622796     0.077579997    7.880667       7.880667       7.880667       0              0              0              0.4495042    
     16600   0.90087074     0.45415496    -2.6782304     -2.4630107     -0.46626434    -0.54965098    -0.23051529    -0.61862674    -0.082768141    0.068983423    0.043189465    7.8536741      7.8536741      7.8536741      0              0              0              0.45415496   
     16700   0.97765866     0.45949885    -2.7244252     -1.9609898     -0.29062057    -0.32812231    -0.33995159    -0.20378782     0.00079561728  0.014524488   -0.019299927    7.8231097      7.8231097      7.8231097      0              0              0              0.45949885   
     16800   1.012849       0.46508707    -2.6680013     -1.0822141      0.031334232   -0.051964138    0.38336228    -0.23739544     0.12333004    -0.031881837    0.025960529    7.7916506      7.7916506      7.7916506      0              0              0              0.46508707   
     16900   1.0872025      0.47025955    -2.7129675     -1.3354819     -0.10480977    -0.047039577   -0.37089356     0.10350383     0.040544703   -0.21243592    -0.17355961     7.7629779      7.7629779      7.7629779      0              0              0              0.47025955   
     17000   1.1053848      0.47517141    -2.7422751     -1.0198517      0.031377182    0.052288532    0.11905347    -0.077210457   -0.090917889   -0.081805952   -0.25826441     7.7361365      7.7361365      7.7361365      0              0              0              0.47517141   
     17100   1.0753838      0.47947177    -2.7441619     -0.98106757     0.068906188    0.22115085    -0.48698541     0.47255312    -0.27149549     0.094717314    0.085502684    7.7129387      7.7129387      7.7129387      0              0              0              0.47947177   
     17200   1.054898       0.48383136    -2.7916008     -0.97317524     0.10731835     0.1063903      0.10914099     0.10642375    -0.066503711   -0.047106979    0.078895341    7.6897028      7.6897028      7.6897028      0              0              0              0.48383136   
     17300   0.9972689      0.48831923    -2.7815798     -1.7729736     -0.21300379    -0.50084915    -0.027922832   -0.11023938     0.24615444     0.045707852   -0.051326444    7.666073       7.666073       7.666073       0              0              0              0.48831923   
     17400   1.0051118      0.49326009    -2.850289      -1.4510551     -0.045243374    0.051980367   -0.23004779     0.042337306   -0.092347685   -0.080245937    0.023844119    7.6403907      7.6403907      7.6403907      0              0              0              0.49326009   
     17500   0.9361313      0.49840942    -2.7870626     -1.7967489     -0.18434908    -0.3491651      0.027353123   -0.23123527    -0.086732648    0.1588202      0.22943271     7.6139873      7.6139873      7.6139873      0              0              0              0.49840942   
     17600   1.0035261      0.50370422    -2.9016899     -2.2535728     -0.38906369    -0.36907865    -0.43414715    -0.36396527     0.2072374      0.26657773    -0.23558598     7.5872145      7.5872145      7.5872145      0              0              0              0.50370422   
     17700   0.99548127     0.50945819    -2.8915643     -1.6561969     -0.11596582    -0.13756302     0.0090730299  -0.21940748    -0.0042962627  -0.25100359     0.080458549    7.5585422      7.5585422      7.5585422      0              0              0              0.50945819   
     17800   0.96088239     0.51490961    -2.826981      -1.3173312      0.035356893    0.10434661    -0.15174253     0.1534666      0.066635165   -0.035651229   -0.15005943     7.5317731      7.5317731      7.5317731      0              0              0              0.51490961   
     17900   1.0652794      0.52012229    -2.9561263     -1.9890348     -0.29450177    -0.30483167     0.020596716   -0.59927034    -0.10336007     0.076968017    0.071445716    7.5065273      7.5065273      7.5065273      0              0              0              0.52012229   
     18000   1.0450102      0.52523923    -2.8967457     -1.4171703     -0.038248091   -0.046117234   -0.050935117   -0.017691922    0.3330986     -0.32083075    -0.29809685     7.4820713      7.4820713      7.4820713      0              0              0              0.52523923   
     18100   1.1713028      0.5302114     -3.0650809     -1.3704494     -0.025805821   -0.027817174    0.18437461    -0.2339749     -0.060348052    0.042962269    0.092454291    7.4586095      7.4586095      7.4586095      0              0              0              0.5302114    
     18200   1.0578142      0.53482916    -2.9307657     -1.7728242     -0.20461894    -0.098865864   -0.48304813    -0.031942818    0.072586516   -0.093118725   -0.26355166     7.4370814      7.4370814      7.4370814      0              0              0              0.53482916   
     18300   1.0537521      0.53984014    -3.0270791     -1.4545143     -7.8678864e-05 -0.51222074     0.54015913    -0.028174434    0.13419365     0.084231706   -0.056110379    7.4139986      7.4139986      7.4139986      0              0              0              0.53984014   
     18400   0.94527355     0.54472582    -2.9678775     -1.1435365      0.20477742     0.10177018     0.35755316     0.15500893     0.1746111     -0.052732914    0.20693257     7.3917665      7.3917665      7.3917665      0              0              0              0.54472582   
     18500   1.0003838      0.54949608    -3.1112223     -2.7910452     -0.58591053    -0.77032884    -0.45625445    -0.53114831    -0.32463595     0.11424474     0.32460545     7.3703146      7.3703146      7.3703146      0              0              0              0.54949608   
     18600   0.93342939     0.55542832    -3.0461792     -1.2735532      0.19161405     0.69013887     0.09479355    -0.21009027    -0.2147642     -0.26570887    -0.13942786     7.3439811      7.3439811      7.3439811      0              0              0              0.55542832   
     18700   0.93527901     0.5604578     -3.0463309     -2.6101        -0.48896016    -0.64957064    -0.23396575    -0.5833441      0.075055924    0.17064856    -0.18857979     7.3219471      7.3219471      7.3219471      0              0              0              0.5604578    
     18800   0.95815802     0.56610924    -3.0575008     -1.5885054      0.020042572   -0.11712484     0.023068562    0.154184      -0.030868672    0.15906461    -0.12952429     7.2975007      7.2975007      7.2975007      0              0              0              0.56610924   
     18900   1.0345974      0.57154012    -3.1312136     -1.4282766      0.082509782    0.45294098    -0.33015265     0.12474102     0.19825569    -0.042200947    0.25299989     7.2743131      7.2743131      7.2743131      0              0              0              0.57154012   
     19000   1.0668423      0.57677599    -3.141087      -0.95408603     0.31184646     0.66643483     0.32130752    -0.052202981   -0.074075604   -0.12673953    -0.231312       7.2522345      7.2522345      7.2522345      0              0              0              0.57677599   
     19100   1.1131383      0.58143707    -3.1931705     -1.4579413      0.039046339   -0.10149004     0.22055128    -0.0019222287  -0.21152342    -0.13191448    -0.056280253    7.2328033      7.2328033      7.2328033      0              0              0              0.58143707   
     19200   1.0472607      0.5865037     -3.1392863     -1.9414221     -0.19470449    -0.73073322     0.34051106    -0.19389129    -0.35640221     0.12849314     0.071420606    7.2119157      7.2119157      7.2119157      0              0              0              0.5865037    
     19300   1.0000231      0.59187144    -3.1861346     -1.966362      -0.14676365     0.24990055    -0.40636024    -0.28383127    -0.22321983     0.085514137   -0.063403061    7.1900476      7.1900476      7.1900476      0              0              0              0.59187144   
     19400   0.96043718     0.5974368     -3.2428702     -1.6474094      0.087990657   -0.28155316     0.0073385148   0.53818662     0.11064638    -0.30396774    -0.10335986     7.1676519      7.1676519      7.1676519      0              0              0              0.5974368    
     19500   0.94546323     0.60309417    -3.2695646     -2.3526382     -0.27094143    -0.39422272    -0.18531168    -0.2332899     -0.15947676    -0.37337383    -0.16344471     7.1451692      7.1451692      7.1451692      0              0              0              0.60309417   
     19600   0.91943337     0.60890757    -3.2411162     -2.208391      -0.18794712    -0.61737439     0.24443033    -0.19089729    -0.029654422    0.10382703     0.16820676     7.1223575      7.1223575      7.1223575      0              0              0              0.60890757   
     19700   0.92910036     0.61470585    -3.2373834     -1.7381009      0.062923653    0.019695544    0.074549437    0.094525977    0.00072555451  0.05116425    -0.1396832      7.0998926      7.0998926      7.0998926      0              0              0              0.61470585   
     19800   1.0214153      0.62012643    -3.3312399     -2.4188945     -0.34508175    -0.82339081    -0.17892225    -0.032932203   -0.0690905     -0.24173393     0.15816744     7.0791451      7.0791451      7.0791451      0              0              0              0.62012643   
     19900   0.99727504     0.62594482    -3.2451708     -2.2953682     -0.30650261    -0.1981067     -0.055610155   -0.66579099    -0.24542487     0.081138276    0.039706825    7.0571423      7.0571423      7.0571423      0              0              0              0.62594482   
     20000   1.0249702      0.63194432    -3.2476044     -1.1464838      0.32823909     0.47735343     0.32038041     0.18698343     0.27021795     0.043524712   -0.017271865    7.0347385      7.0347385      7.0347385      0              0              0              0.63194432   
     20100   1.0945605      0.63697569    -3.3241097     -1.8179186     -0.07379677     0.045459085   -0.19326501    -0.073584382    0.008823608   -0.39517811    -0.21437563     7.0161674      7.0161674      7.0161674      0              0              0              0.63697569   
     20200   1.059285       0.64207505    -3.2946781     -1.1740745      0.3149791      0.38765027     0.4221595      0.13512752    -0.4433722      0.20861765    -0.20408033     6.9975439      6.9975439      6.9975439      0              0              0              0.64207505   
     20300   1.0599186      0.64637751    -3.3552326     -2.221182      -0.26318019    -0.28997008    -0.18915441    -0.31041608    -0.075705762   -0.094220719   -0.21092438     6.9819834      6.9819834      6.9819834      0              0              0              0.64637751   
     20400   1.0372826      0.65136016    -3.4136399     -2.0353324     -0.10056809     0.11267493    -0.4894167      0.075037503   -0.026619654   -0.43135243     0.29129298     6.9641347      6.9641347      6.9641347      0              0              0              0.65136016   
     20500   0.99632731     0.6564255     -3.4339016     -1.7240679      0.1329651      0.56758607    -0.54164542     0.37295464    -0.27235731     0.4044106      0.19929384     6.9461754      6.9461754      6.9461754      0              0              0              0.6564255    
     20600   1.0191866      0.66126324    -3.5030783     -2.1380655     -0.093853168   -0.070254096    0.086003752   -0.29730916     0.21293847     0.17710749     0.36060325     6.9291947      6.9291947      6.9291947      0              0              0              0.66126324   
     20700   0.95787199     0.66662956    -3.4331166     -2.7443102     -0.44895535    -0.44092106    -0.33913967    -0.56680532    -0.066767784   -0.50988841    -0.32664332     6.9105515      6.9105515      6.9105515      0              0              0              0.66662956   
     20800   0.97312188     0.67295268    -3.4655181     -1.6852619      0.20058382     0.21444765     0.036335188    0.35096861     0.0051858056  -0.062416761   -0.060534943    6.8888393      6.8888393      6.8888393      0              0              0              0.67295268   
     20900   1.0755259      0.67865408    -3.6215662     -2.6850849     -0.41258531    -0.30370523    -0.40077591    -0.53327478    -0.24104285     0.0017347125  -0.44351666     6.8694939      6.8694939      6.8694939      0              0              0              0.67865408   
     21000   0.97991071     0.68402833    -3.4770049     -1.2691848      0.46346238     0.25673708     0.78440191     0.34924815    -0.15059972     0.19594436     0.10478134     6.8514559      6.8514559      6.8514559      0              0              0              0.68402833   
     21100   1.0479321      0.6886713     -3.5876038     -1.9537977      0.043678895   -0.022170677   -0.00085982021  0.15406718    -0.2187003     -0.18003683     0.23771154     6.8360238      6.8360238      6.8360238      0              0              0              0.6886713    
     21200   1.0522393      0.69356598    -3.6214834     -2.1193603     -0.043091865   -0.2562026      0.13950333    -0.012576326    0.012232308    0.0047963064  -0.017139951    6.8199046      6.8199046      6.8199046      0              0              0              0.69356598   
     21300   1.0167361      0.69867963    -3.6382606     -1.8902796      0.14640667    -0.29193367     0.58741167     0.14374201    -0.18809499     0.61515602     0.10791843     6.8032255      6.8032255      6.8032255      0              0              0              0.69867963   
     21400   0.99527726     0.70380993    -3.7018206     -2.124682       0.058664012   -0.23293947     0.061851906    0.3470796     -0.28004369    -0.2390673     -0.13379541     6.7866549      6.7866549      6.7866549      0              0              0              0.70380993   
     21500   0.96242783     0.70894248    -3.7235559     -3.1787305     -0.5746289     -0.43852903    -0.48636289    -0.79899478    -0.47051052    -0.15084315    -0.00091685783  6.7702373      6.7702373      6.7702373      0              0              0              0.70894248   
     21600   0.89825769     0.71538836    -3.6662164     -2.0994212      0.14707447     0.59542754     0.22403782    -0.37824196     0.045914011    0.26487298     0.23651384     6.749842       6.749842       6.749842       0              0              0              0.71538836   
     21700   0.92130212     0.72131229    -3.7076819     -2.2333706      0.065093756    0.028758771    0.26517662    -0.098654123    0.32581864     0.075226874    0.0042671108   6.731313       6.731313       6.731313       0              0              0              0.72131229   
     21800   0.93247516     0.72628816    -3.7140334     -1.6087682      0.47112728     0.60144611     0.54441062     0.2675251     -0.46480094    -0.43665064     0.26816873     6.7159054      6.7159054      6.7159054      0              0              0              0.72628816   
     21900   1.0634368      0.73064655    -3.8889402     -2.017018       0.18913303     0.25003988    -0.048475531    0.36583474    -0.091890183    0.31109724     0.24983351     6.7025251      6.7025251      6.7025251      0              0              0              0.73064655   
     22000   1.0631593      0.7350298     -3.8818258     -2.2942507      0.00054110747  0.29542642    -0.34705981     0.053256708    0.29935747     0.14830541    -0.18310852     6.6891753      6.6891753      6.6891753      0              0              0              0.7350298    
     22100   1.0206207      0.73926996    -3.8221007     -1.4873013      0.54539506     0.32597519     0.77324313     0.53696686    -0.093998844   -0.096012954    0.23657344     6.676362       6.676362       6.676362       0              0              0              0.73926996   
     22200   0.98311269     0.74308894    -3.785835      -1.7096287      0.41134066     0.43867907     0.47537778     0.31996513    -0.13265504     0.52044626     0.023679386    6.664905       6.664905       6.664905       0              0              0              0.74308894   
     22300   1.0613316      0.74657747    -3.9304013     -2.2740819      0.049058254    0.29207437     0.18924304    -0.33414265     0.24621398     0.26012282    -0.29631267     6.6545077      6.6545077      6.6545077      0              0              0              0.74657747   
     22400   0.98426578     0.75077463    -3.8883393     -1.384638       0.70619544     0.56932892     0.59341839     0.955839      -0.30352041     0.39081784     0.057613241    6.642084       6.642084       6.642084       0              0              0              0.75077463   
     22500   0.9779714      0.75469724    -4.0141297     -2.7235951     -0.11600916    -0.3487828      0.07717706    -0.076421751    0.46846757    -0.064378043    0.17177211     6.6305564      6.6305564      6.6305564      0              0              0              0.75469724   
     22600   0.91658013     0.75970301    -4.0382499     -2.984655      -0.21713762    -0.059008531   -0.32843661    -0.26396771     0.28148461     0.043128726    0.53883198     6.6159611      6.6159611      6.6159611      0              0              0              0.75970301   
     22700   0.95679186     0.76523846    -4.1217701     -2.1785485      0.35841664     0.17895836     0.8852366      0.011054982   -0.073976102   -0.53688033    -0.065868886    6.59997        6.59997        6.59997        0              0              0              0.76523846   
     22800   0.98678993     0.76966576    -4.1475373     -2.386531       0.2016681      0.072506471    0.2822331      0.25026471    -0.074759939   -0.1334054      0.010977176    6.5872908      6.5872908      6.5872908      0              0              0              0.76966576   
     22900   0.97993511     0.77419591    -4.1112635     -2.5489573      0.07020762    -0.25060833     0.17322132     0.28800987    -0.38328045     0.34598069     0.34040476     6.5744173      6.5744173      6.5744173      0              0              0              0.77419591   
     23000   0.97593008     0.77869703    -4.0774594     -2.1345717      0.34426342     0.30607063     0.76843625    -0.041716609    0.25106399     0.039351087   -0.11951644     6.5617254      6.5617254      6.5617254      0              0              0              0.77869703   
     23100   0.95382314     0.78287422    -4.0189713     -1.3082657      0.91605149     1.0268039      1.0557154      0.66563513    -0.0092137476  -0.52265722     0.13458545     6.5500341      6.5500341      6.5500341      0              0              0              0.78287422   
     23200   1.0562514      0.78596789    -4.1419747     -2.3892482      0.12594869     0.72109454     0.074633624   -0.41788211    -0.14884343    -0.0097948469   0.3797524      6.5414289      6.5414289      6.5414289      0              0              0              0.78596789   
     23300   1.0277151      0.78887706    -4.0715893     -1.0357912      1.0771279      1.3480977      1.1167643      0.76652172    -0.21712945     0.032026896   -0.12552112     6.533378       6.533378       6.533378       0              0              0              0.78887706   
     23400   1.0878412      0.79052504    -4.1427703     -2.081183       0.31476144     1.1278329     -0.30353526     0.11998668    -0.086348144    0.34924914    -0.020304022    6.5288349      6.5288349      6.5288349      0              0              0              0.79052504   
     23500   1.0813816      0.79300638    -4.1442412     -1.8170943      0.51414561     0.097799844    0.83842143     0.60621554    -0.59326648    -0.39619892     0.053941745    6.5220181      6.5220181      6.5220181      0              0              0              0.79300638   
     23600   1.1055342      0.79557716    -4.2523127     -2.3304011      0.19665357    -0.13495618     0.3341565      0.39076037    -0.042484109    0.27751385     0.14882417     6.5149856      6.5149856      6.5149856      0              0              0              0.79557716   
     23700   1.0791605      0.79873894    -4.3348434     -2.3676208      0.25891889     0.26234341     0.44608668     0.068326571   -0.31786553    -0.10777902    -0.055670441    6.5063778      6.5063778      6.5063778      0              0              0              0.79873894   
     23800   0.97344722     0.80241548    -4.2669805     -2.9074005     -0.068052135   -0.079462459   -0.3107284      0.18603445    -0.051638194   -0.66141202     0.32219148     6.4964255      6.4964255      6.4964255      0              0              0              0.80241548   
     23900   0.99884293     0.80692407    -4.3438764     -3.0907443     -0.17432567     0.10720005    -0.3232124     -0.30696466     0.067058476    0.15674896     0.012404282    6.4843035      6.4843035      6.4843035      0              0              0              0.80692407   
     24000   0.98412126     0.81224183    -4.3506364     -2.3182108      0.41618141     0.58791603     0.67269792    -0.01206971     0.1781844      0.23540713    -0.097909528    6.4701216      6.4701216      6.4701216      0              0              0              0.81224183   
     24100   0.96643745     0.81612421    -4.3266369     -2.8726423      0.008596498   -0.025664496    0.039883012    0.011570978   -0.13172166     0.61058065    -0.33448995     6.4598456      6.4598456      6.4598456      0              0              0              0.81612421   
     24200   0.96282908     0.820108      -4.305153      -1.4896461      1.0277329      1.4074008      0.7952628      0.88053504    -0.041147851    0.15980609     0.23099524     6.4493688      6.4493688      6.4493688      0              0              0              0.820108     
     24300   0.93722003     0.82250595    -4.2383966     -1.4786861      1.0175966      1.4759718      0.86051654     0.71630138     0.6652232      0.45997139    -0.24184539     6.4430951      6.4430951      6.4430951      0              0              0              0.82250595   
     24400   0.99831828     0.82417255    -4.2952432     -1.4112822      1.0444297      0.66506253     1.0050102      1.4632162     -0.06837889    -0.034989684   -0.52434881     6.4387492      6.4387492      6.4387492      0              0              0              0.82417255   
     24500   1.073144       0.82529734    -4.3716664     -1.6638527      0.82990877     1.1530088      0.77836672     0.55835075    -0.48687047     0.36366744    -0.037107623    6.4358228      6.4358228      6.4358228      0              0              0              0.82529734   
     24600   1.0249429      0.82681902    -4.2634268     -1.8812827      0.64072227     0.75872064     0.64993989     0.51350629    -0.08909628     0.0014224554  -0.037151533    6.4318722      6.4318722      6.4318722      0              0              0              0.82681902   
     24700   1.0050436      0.82792547    -4.2250041     -0.8353107      1.422275       1.237275       1.5922738      1.4372761      0.13833137    -0.15687164     0.036454475    6.4290057      6.4290057      6.4290057      0              0              0              0.82792547   
     24800   1.1203928      0.82755453    -4.4224788     -1.2615577      1.1200085      1.177575       1.1552173      1.027233      -0.13668933     0.020985302   -0.31389        6.4299662      6.4299662      6.4299662      0              0              0              0.82755453   
     24900   1.0330732      0.8276099     -4.3642442     -1.330291       1.1226087      1.0393258      1.0588241      1.2696763     -0.34351252    -0.39316235    -0.22413244     6.4298228      6.4298228      6.4298228      0              0              0              0.8276099    
     25000   0.95008822     0.82764459    -4.3301383     -1.8692892      0.78463898     1.1847574      0.59529196     0.57386763    -0.23961321    -0.41940334    -0.069256362    6.4297329      6.4297329      6.4297329      0              0              0              0.82764459   
     25100   0.90102234     0.82732006    -4.3090081     -1.309126       1.2448205      1.0566931      1.0419869      1.6357816      0.17824523     0.24787115     0.41223173     6.4305735      6.4305735      6.4305735      0              0              0              0.82732006   
     25200   0.89319756     0.82737268    -4.3178006     -1.5611564      1.0707307      1.4380086      0.60809465     1.1660888     -0.10516216    -0.043180347   -0.13411934     6.4304372      6.4304372      6.4304372      0              0              0              0.82737268   
     25300   0.92382243     0.82812164    -4.3473055     -2.086865       0.66372855     0.37821736     0.18382346     1.4291448      0.53606412    -0.15894496    -0.044023904    6.4284981      6.4284981      6.4284981      0              0              0              0.82812164   
     25400   1.0344803      0.82932838    -4.4729177     -2.4485669      0.36218192     0.53140635     0.025505707    0.52963372     0.027762812   -0.084243133   -0.37376485     6.4253785      6.4253785      6.4253785      0              0              0              0.82932838   
     25500   1.0787522      0.83091333    -4.4789522     -1.7084065      0.87661965     0.65521336     1.0942571      0.88038846    -0.23241819    -0.40155989    -0.42480742     6.4212905      6.4212905      6.4212905      0              0              0              0.83091333   
     25600   1.0203059      0.8317742     -4.3299136     -1.9013405      0.68490294     0.45326476     0.6348175      0.96662656     0.14944882    -0.36422581     0.32894263     6.4190744      6.4190744      6.4190744      0              0              0              0.8317742    
     25700   1.0086571      0.83206324    -4.2555179     -0.87105394     1.4213479      1.3676417      1.1176902      1.7787119     -0.4818749      0.011143011   -0.4035437      6.4183311      6.4183311      6.4183311      0              0              0              0.83206324   
     25800   1.119642       0.8314705     -4.3766049     -1.1680758      1.1621414      1.5902896      1.2063661      0.68976854     0.35915702     0.32121611    -0.12776271     6.4198559      6.4198559      6.4198559      0              0              0              0.8314705    
     25900   1.0863491      0.83101718    -4.3304648     -1.2977844      1.0661983      1.703307       0.23041755     1.2648704     -0.087499057   -0.076697668    0.33343701     6.421023       6.421023       6.421023       0              0              0              0.83101718   
     26000   1.0494389      0.8303747     -4.3752425     -1.6095306      0.90542875     1.2548471      0.53402721     0.92741194    -0.44935343    -0.25254903     0.089403111    6.4226786      6.4226786      6.4226786      0              0              0              0.8303747    
     26100   0.97220356     0.83047954    -4.4256487     -1.7707375      0.9089201      0.47922829     0.45107293     1.7964591     -0.16860741    -0.10248593    -0.016092881    6.4224083      6.4224083      6.4224083      0              0              0              0.83047954   
     26200   0.94498613     0.83097063    -4.4499139     -1.8450713      0.90232136     0.91023729     0.48096429     1.3157625      0.65319718     0.54655087    -0.035971593    6.4211429      6.4211429      6.4211429      0              0              0              0.83097063   
     26300   0.9647688      0.83184369    -4.4870951     -2.7702645      0.2094077     -0.17454638     0.35018172     0.45258777     0.29608227     0.36010623     0.13319015     6.4188957      6.4188957      6.4188957      0              0              0              0.83184369   
     26400   0.94840542     0.83457134    -4.4595268     -2.5078955      0.40676726     0.87278916     0.18110175     0.16641087     0.34827323    -0.18250185     0.24122431     6.411895       6.411895       6.411895       0              0              0              0.83457134   
     26500   0.98113525     0.83745665    -4.4845957     -2.0856826      0.7115098      0.47030332     1.0002672      0.6639589      0.0019004488   0.094004393   -0.25598617     6.4045229      6.4045229      6.4045229      0              0              0              0.83745665   
     26600   0.97651599     0.83969872    -4.4369716     -1.1584425      1.3901433      1.6264061      1.020661       1.5233629      0.20315223     0.41058895    -0.30766664     6.3988176      6.3988176      6.3988176      0              0              0              0.83969872   
     26700   1.0568141      0.84079143    -4.5099126     -2.2139064      0.54935104     0.59741849     0.62254329     0.42809135     0.377159      -0.44649996     0.11139444     6.3960444      6.3960444      6.3960444      0              0              0              0.84079143   
     26800   1.0158847      0.84186397    -4.4013062     -1.4764144      1.0781092      0.54259361     1.3234114      1.3683228     -0.053818597   -0.11963207     0.23776552     6.393327       6.393327       6.393327       0              0              0              0.84186397   
     26900   1.0374906      0.84201473    -4.3921706     -1.0617231      1.3640582      0.28276834     2.0427584      1.766648      -0.60476034     0.0084837042   0.48336679     6.3929454      6.3929454      6.3929454      0              0              0              0.84201473   
     27000   1.0850042      0.84111455    -4.4344563     -1.6692885      0.87613475     1.360913       0.69799586     0.5694954      0.67315817    -0.010459326    0.90616904     6.3952253      6.3952253      6.3952253      0              0              0              0.84111455   
     27100   1.0622266      0.84041661    -4.3827813     -1.8165106      0.7494205      0.63333488     1.2847832      0.33014337     0.49318468     0.1698454      0.2408739      6.3969951      6.3969951      6.3969951      0              0              0              0.84041661   
     27200   1.083344       0.83977699    -4.4208406     -1.9222241      0.6731389      0.79394239     0.45039592     0.7750784      0.37363112    -0.67569587     0.26006421     6.3986188      6.3986188      6.3986188      0              0              0              0.83977699   
     27300   1.0023022      0.83999843    -4.3410015     -1.1627496      1.2846751      1.484284       0.41393636     1.9558051      0.15284035     0.17059143     0.53179063     6.3980565      6.3980565      6.3980565      0              0              0              0.83999843   
     27400   1.0106491      0.84003983    -4.4350135     -2.2452199      0.5203663      0.9451329      0.37141833     0.24454767    -0.29363878    -0.21155646    -0.1303317      6.3979514      6.3979514      6.3979514      0              0              0              0.84003983   
     27500   0.97125234     0.840777      -4.4689169     -1.9526576      0.81529776     1.1787535      1.487843      -0.22070328    -0.44616995    -0.039550813   -0.22672524     6.396081       6.396081       6.396081       0              0              0              0.840777     
     27600   0.93243403     0.84114936    -4.4645266     -2.1256014      0.72435762     0.95015815     0.63940919     0.58350553    -0.47559834     0.17514441    -0.28949267     6.395137       6.395137       6.395137       0              0              0              0.84114936   
[...]
    136000   0.10251238     0.27144731    -4.7545654     -5.1145512     -0.12658958     0.016382859   -0.16920912    -0.22694248    -0.012396879   -0.015615173   -0.028968991    23.085505      5.9251436      5.9251436      0              0              0              0.27144731   
    137000   0.10783509     0.26874636    -4.7717611     -4.9329054     -0.07869092     0.0076923471  -0.14441975    -0.099345356   -0.030749857   -0.079045277    0.020686364    23.317518      5.9251436      5.9251436      0              0              0              0.26874636   
    138000   0.099450816    0.26607229    -4.7989529     -5.8200154     -0.2828815     -0.15882194    -0.28347578    -0.40634678     0.084421634    0.018343217   -0.043022376    23.551863      5.9251436      5.9251436      0              0              0              0.26607229   
    139000   0.10172438     0.26342483    -4.8455304     -5.4493043     -0.18094832    -0.11098778    -0.21488741    -0.21696977    -0.032631726   -0.038303918   -0.003865347    23.788563      5.9251436      5.9251436      0              0              0              0.26342483   
    140000   0.10879902     0.26080371    -4.8676293     -4.8410071     -0.032188001    0.12474595    -0.10191559    -0.11939437    -0.0053721986  -0.021167505   -0.037641221    24.027642      5.9251436      5.9251436      0              0              0              0.26080371   
    141000   0.098191263    0.25820867    -4.8771323     -5.4130025     -0.16018812    -0.045048164   -0.18940604    -0.24611016     0.011055084   -0.029957958    0.031952684    24.269124      5.9251436      5.9251436      0              0              0              0.25820867   
    142000   0.10408721     0.25563945    -4.9307577     -5.4699927     -0.16142123    -0.09036452    -0.21359393    -0.18030523    -0.049338658    0.010167242   -0.0018934689   24.513033      5.9251436      5.9251436      0              0              0              0.25563945   
    143000   0.096079934    0.25309579    -4.9360473     -5.5078796     -0.16456556    -0.063793977   -0.18673475    -0.24316796     0.067510819   -0.0060075334  -0.033391469    24.759393      5.9251436      5.9251436      0              0              0              0.25309579   
    144000   0.10028139     0.25057745    -4.9542815     -5.4107287     -0.1380721      0.023796907   -0.26080583    -0.17720738     0.022719959   -0.036601897    0.057947233    25.008229      5.9251436      5.9251436      0              0              0              0.25057745   
    145000   0.10024646     0.24808416    -4.9339795     -5.3438502     -0.12618204    -0.034967699   -0.15338296    -0.19019546     0.093118155   -0.01305064    -0.01658642     25.259566      5.9251436      5.9251436      0              0              0              0.24808416   
    146000   0.098721159    0.24561568    -4.9416897     -5.1293109     -0.074792778    0.11105809    -0.11247367    -0.22296275    -0.051691852   -0.0010271445   0.017691804    25.513429      5.9251436      5.9251436      0              0              0              0.24561568   
    147000   0.11095695     0.24317177    -4.9346031     -5.516306      -0.16520341    -0.073981329   -0.17042463    -0.25120427    -0.049610869    0.023211385    0.068634275    25.769843      5.9251436      5.9251436      0              0              0              0.24317177   
    148000   0.091405691    0.24075217    -4.9361363     -5.4159582     -0.13487482     0.0021768975  -0.13936124    -0.2674401      0.012802383   -0.0076349769   0.055962871    26.028834      5.9251436      5.9251436      0              0              0              0.24075217   
    149000   0.1044849      0.23835664    -4.9423419     -5.2034419     -0.090368308    0.044553455   -0.12773968    -0.18791869     0.020940135    0.005374322    0.031156665    26.290428      5.9251436      5.9251436      0              0              0              0.23835664   
    150000   0.092817889    0.23598496    -4.9496491     -5.5628579     -0.16127202     0.0061386301  -0.19832796    -0.29162674    -0.049912385    0.023768962   -0.047831156    26.554651      5.9251436      5.9251436      0              0              0              0.23598496   
    151000   0.1023474      0.23363687    -4.9420993     -5.4799827     -0.1466893     -0.072178249   -0.19309407    -0.17479559    -0.035223341   -0.02830736    -0.00020793557  26.82153       5.9251436      5.9251436      0              0              0              0.23363687   
    152000   0.097936645    0.23131214    -4.9419034     -5.3700757     -0.12077495    -0.053543526   -0.11547848    -0.19330284     0.081104312   -0.013183038    0.04077516     27.091091      5.9251436      5.9251436      0              0              0              0.23131214   
    153000   0.092529983    0.22901055    -4.9472422     -5.2777423     -0.097558722   -0.015962096   -0.1356205     -0.14109357     0.015527728    0.031576633   -0.0025880726   27.363361      5.9251436      5.9251436      0              0              0              0.22901055   
    154000   0.097494455    0.22673185    -4.9346545     -5.0690377     -0.057691636    0.048934571   -0.065602826   -0.15640665     0.012138328    0.000748772   -0.0094816421   27.638367      5.9251436      5.9251436      0              0              0              0.22673185   
    155000   0.095208423    0.22447583    -4.9547394     -5.3231857     -0.10418635     0.025704215   -0.1883767     -0.14988658     0.024927128    0.016537151    0.0053904256   27.916137      5.9251436      5.9251436      0              0              0              0.22447583   
    156000   0.10173242     0.22224226    -4.9407255     -5.2552183     -0.094216258    0.056724613   -0.11106111    -0.22831227    -0.0055780709  -0.0083533554   0.013036643    28.196699      5.9251436      5.9251436      0              0              0              0.22224226   
    157000   0.097218652    0.22003091    -4.9349825     -5.2429227     -0.090620542    0.032182837   -0.10221961    -0.20182486    -0.0068905609  -0.001080552   -0.062361685    28.480081      5.9251436      5.9251436      0              0              0              0.22003091   
    158000   0.090592674    0.21784157    -4.9480038     -5.3632419     -0.10900944    -0.015697671   -0.11541883    -0.19591182    -0.016778505   -0.026067781   -0.015554094    28.76631       5.9251436      5.9251436      0              0              0              0.21784157   
    159000   0.09318697     0.21567401    -4.9322911     -5.6392741     -0.16588557    -0.073934917   -0.1169297     -0.30679208    -0.018232264   -0.021892791   -0.013996708    29.055417      5.9251436      5.9251436      0              0              0              0.21567401   
    160000   0.096275612    0.21352802    -4.9355241     -5.3657643     -0.11140951    -0.050625311   -0.12438774    -0.15921548     0.043602152   -0.043563264    0.0047107391   29.347428      5.9251436      5.9251436      0              0              0              0.21352802   
    161000   0.092710153    0.21140338    -4.9538369     -5.2999707     -0.093114282    0.044532709   -0.079147006   -0.24472855    -0.016582922   -0.014550052    0.042848968    29.642375      5.9251436      5.9251436      0              0              0              0.21140338   
    162000   0.097271567    0.20929988    -4.9340665     -5.1839229     -0.075164202    0.020583354   -0.091784885   -0.15429107    -0.0015815871  -0.016680055   -0.057573599    29.940286      5.9251436      5.9251436      0              0              0              0.20929988   
    163000   0.10587807     0.20721731    -4.9556428     -5.3579264     -0.10555021    -0.01646832    -0.12414181    -0.17604051     0.023058296    0.0035907487   0.0086255489   30.241191      5.9251436      5.9251436      0              0              0              0.20721731   
    164000   0.09569529     0.20515546    -4.9571567     -5.3118636     -0.092792206    0.0072118943  -0.12980919    -0.15577932     0.0084040639  -0.0055508315  -0.028218791    30.54512       5.9251436      5.9251436      0              0              0              0.20515546   
    165000   0.093356985    0.20311413    -4.926548      -5.3093869     -0.09641906     0.011182555   -0.17193775    -0.12850199     0.0074654339   0.050067681    0.0066273452   30.852103      5.9251436      5.9251436      0              0              0              0.20311413   
    166000   0.084973641    0.20109311    -4.9458859     -5.1280425     -0.056485187    0.034653543   -0.053945158   -0.15016395     0.022473824   -0.053390013   -0.023718228    31.162172      5.9251436      5.9251436      0              0              0              0.20109311   
    167000   0.1035718      0.1990922     -4.9389731     -5.4897087     -0.12765729     0.0076760473  -0.20171157    -0.18893635     0.009946357   -0.015797077   -0.0071963338   31.475357      5.9251436      5.9251436      0              0              0              0.1990922    
    168000   0.099824333    0.1971112     -4.9585146     -5.1382303     -0.058901044    0.037268003   -0.042703801   -0.17126733    -0.019425468    0.052516035   -0.032074346    31.79169       5.9251436      5.9251436      0              0              0              0.1971112    
    169000   0.099258989    0.19514991    -4.9346474     -5.4423939     -0.11636089    -0.032910953   -0.18919675    -0.12697497     0.021887968   -0.0048420369   0.035850335    32.111201      5.9251436      5.9251436      0              0              0              0.19514991   
    170000   0.094527896    0.19320814    -4.963754      -5.4904347     -0.1172885     -0.065858243   -0.16473782    -0.12126944    -0.019371607    0.013970875   -0.0067478435   32.433924      5.9251436      5.9251436      0              0              0              0.19320814   
    171000   0.10358985     0.19128569    -4.9344865     -5.3446498     -0.098211476   -0.016230651   -0.12707386    -0.15132992     0.017130212    0.008573721   -0.020927659    32.759891      5.9251436      5.9251436      0              0              0              0.19128569   
    172000   0.10854339     0.18938236    -4.952652      -5.3392806     -0.094455248   -0.021378428   -0.076464204   -0.18552311    -0.014985384   -0.027569595   -0.030620061    33.089133      5.9251436      5.9251436      0              0              0              0.18938236   
    173000   0.09821089     0.18749798    -4.9550932     -5.4278582     -0.10556899     0.01271279    -0.15874963    -0.17067014     0.029493139    0.02097854    -0.040213124    33.421684      5.9251436      5.9251436      0              0              0              0.18749798   
    174000   0.10347939     0.18563234    -4.9405022     -5.3242221     -0.090818576   -0.027343485   -0.13305588    -0.11205636     0.0052333718  -0.034112149   -0.016656958    33.757578      5.9251436      5.9251436      0              0              0              0.18563234   
    175000   0.086745881    0.18378527    -4.9504685     -5.4419352     -0.10374427    -0.049387571   -0.13805101    -0.12379422     0.021574792    0.0044396762  -0.016124386    34.096847      5.9251436      5.9251436      0              0              0              0.18378527   
    176000   0.10402531     0.18195657    -4.9360579     -5.206224      -0.07037153     0.066252117   -0.10740713    -0.16995957     0.014496525    0.0016861455  -0.0042048144   34.439526      5.9251436      5.9251436      0              0              0              0.18195657   
    177000   0.099309972    0.18014608    -4.9519458     -5.4276093     -0.10217289    -0.04670511    -0.12283451    -0.13697906    -0.0095573406   0.031077033   -0.0034023756   34.785649      5.9251436      5.9251436      0              0              0              0.18014608   
    178000   0.10037998     0.17835359    -4.9454757     -5.3852341     -0.095593554   -0.02871808    -0.11069116    -0.14737142     0.031749646    0.023946174   -0.046341643    35.135251      5.9251436      5.9251436      0              0              0              0.17835359   
    179000   0.11507181     0.17657894    -4.9428347     -5.3533802     -0.093472897   -0.016342567   -0.12569046    -0.13838566     0.020965144   -0.00061954578 -0.022187976    35.488366      5.9251436      5.9251436      0              0              0              0.17657894   
    180000   0.10457676     0.17482195    -4.9512581     -5.3571325     -0.089311015   -0.041282066   -0.081897911   -0.14475307    -0.0090300403  -7.9068367e-05 -0.025967553    35.84503       5.9251436      5.9251436      0              0              0              0.17482195   
    181000   0.10192776     0.17308245    -4.932882      -5.0932743     -0.049174204    0.044959751   -0.12216646    -0.070315899   -0.032884462    0.01376096    -0.0088944936   36.205279      5.9251436      5.9251436      0              0              0              0.17308245   
    182000   0.10846052     0.17136025    -4.9398839     -5.4721119     -0.10812916    -0.021322721   -0.13394792    -0.16911683     0.0072211314  -0.0026515138  -0.0087139493   36.569148      5.9251436      5.9251436      0              0              0              0.17136025   
    183000   0.096415505    0.16965518    -4.9506108     -5.5845061     -0.11996093    -0.011763398   -0.19098972    -0.15712967     0.02624577     0.0093246597  -0.010065579    36.936674      5.9251436      5.9251436      0              0              0              0.16965518   
    184000   0.10544902     0.16796709    -4.9472488     -5.5441494     -0.11517706    -0.017208797   -0.14055392    -0.18776848     0.0098701637   0.02215214    -0.0020134325   37.307893      5.9251436      5.9251436      0              0              0              0.16796709   
    185000   0.10289766     0.16629579    -4.940206      -5.4108783     -0.094372425   -0.042430341   -0.090141803   -0.15054513     0.005751745   -0.010722527   -0.019511084    37.682844      5.9251436      5.9251436      0              0              0              0.16629579   
    186000   0.10446122     0.16464112    -4.960463      -5.2403228     -0.065223051    0.032092429   -0.081358477   -0.14640311    -0.0046005871   0.019685825    0.017385234    38.061563      5.9251436      5.9251436      0              0              0              0.16464112   
    187000   0.094922037    0.16300291    -4.9321882     -5.284709      -0.073231562   -0.014792291   -0.094882743   -0.11001965    -0.013027989   -0.002792281    0.0037371291   38.444088      5.9251436      5.9251436      0              0              0              0.16300291   
    188000   0.10738581     0.161381      -4.939854      -5.3443219     -0.082853186   -0.011596462   -0.089578155   -0.14738494     0.001136762   -0.010522586   -0.0077463152   38.830457      5.9251436      5.9251436      0              0              0              0.161381     
    189000   0.10156241     0.15977524    -4.9480231     -5.1087305     -0.04536008     0.01907357    -0.04649436    -0.10865945     0.0061534036   0.0019843682  -0.0094085847   39.22071       5.9251436      5.9251436      0              0              0              0.15977524   
    190000   0.093866103    0.15818545    -4.9542406     -5.5829948     -0.11056434    -0.051548391   -0.13947354    -0.14067109    -0.022754321   -0.0021646137  -0.020526053    39.614885      5.9251436      5.9251436      0              0              0              0.15818545   
    191000   0.10300585     0.15661147    -4.9389405     -5.4978755     -0.1014659     -0.026317087   -0.1153986     -0.16268203    -0.043487779   -0.031965727    0.00081748358  40.013021      5.9251436      5.9251436      0              0              0              0.15661147   
    192000   0.094914362    0.15505316    -4.9541838     -5.4764516     -0.093585509   -0.033979757   -0.090043989   -0.15673278    -0.021139651   -0.012509517    0.0090699959   40.415158      5.9251436      5.9251436      0              0              0              0.15505316   
    193000   0.10396935     0.15351036    -4.9400976     -4.9053503     -0.016806169    0.070641383   -0.059693115   -0.061366774    0.025156613   -0.030435233   -0.01732636     40.821338      5.9251436      5.9251436      0              0              0              0.15351036   
    194000   0.10864412     0.15198291    -4.9447413     -5.5277235     -0.10295232    -0.077410053   -0.082298841   -0.14914807     0.027132945   -0.012822854   -0.010913935    41.231599      5.9251436      5.9251436      0              0              0              0.15198291   
    195000   0.099533108    0.15047065    -4.9581573     -5.2470289     -0.059835999    0.024316474   -0.050818671   -0.1530058     -0.011231585    0.019730008    0.013602351    41.645983      5.9251436      5.9251436      0              0              0              0.15047065   
    196000   0.10622225     0.14897344    -4.9550714     -5.09652       -0.040627135    0.01139012    -0.041159006   -0.09211252     0.00064740228 -0.03044037    -0.038998731    42.064532      5.9251436      5.9251436      0              0              0              0.14897344   
    197000   0.1050235      0.14749113    -4.9411201     -5.448814      -0.089090201   -0.014507688   -0.13191647    -0.12084644     0.011189512   -0.026558365   -0.017518363    42.487288      5.9251436      5.9251436      0              0              0              0.14749113   
    198000   0.093765145    0.14602357    -4.9464247     -4.914963      -0.014400944    0.062601163   -0.04884208    -0.056961914   -0.0067835624   0.028850035   -0.0060320678   42.914292      5.9251436      5.9251436      0              0              0              0.14602357   
    199000   0.09618296     0.14457061    -4.9419859     -5.413676      -0.080860073   -0.005115054   -0.10151848    -0.13594668    -0.0043866695   0.0099738877  -0.031086421    43.345588      5.9251436      5.9251436      0              0              0              0.14457061   
    200000   0.099878109    0.14313211    -4.9396384     -5.4864308     -0.090545437   -0.027289525   -0.11158249    -0.1327643      0.0085406117  -0.009483698   -0.016859502    43.781219      5.9251436      5.9251436      0              0              0              0.14313211   
Loop time of 43.4931 on 1 procs for 200000 steps with 200 atoms

Performance: 794608.320 tau/day, 4598.428 timesteps/s
55.1% CPU use with 1 MPI tasks x 1 OpenMP threads

MPI task timing breakdown:
Section |  min time  |  avg time  |  max time  |%varavg| %total
---------------------------------------------------------------
Pair    | 33.082     | 33.082     | 33.082     |   0.0 | 76.06
Bond    | 0.8523     | 0.8523     | 0.8523     |   0.0 |  1.96
Neigh   | 0.25703    | 0.25703    | 0.25703    |   0.0 |  0.59
Comm    | 1.4225     | 1.4225     | 1.4225     |   0.0 |  3.27
Output  | 1.1467     | 1.1467     | 1.1467     |   0.0 |  2.64
Modify  | 6.1934     | 6.1934     | 6.1934     |   0.0 | 14.24
Other   |            | 0.5394     |            |       |  1.24

Nlocal:            200 ave         200 max         200 min
Histogram: 1 0 0 0 0 0 0 0 0 0
Nghost:            757 ave         757 max         757 min
Histogram: 1 0 0 0 0 0 0 0 0 0
Neighs:          11952 ave       11952 max       11952 min
Histogram: 1 0 0 0 0 0 0 0 0 0

Total # of neighbors = 11952
Ave neighs/atom = 59.76
Ave special neighs/atom = 7.9
Neighbor list builds = 385
Dangerous builds = 0
System init for write_data ...
Generated 0 of 1 mixed pair_coeff terms from geometric mixing rule
WARNING: Not all mixed pair coeffs generated from mixing. Use write_data with 'pair ij' option to store all pair coeffs. (src/write_data.cpp:309)
Total wall time: 0:00:43
0.75625
