LAMMPS (23 Jun 2022)
OMP_NUM_THREADS environment is not set. Defaulting to 1 thread. (src/comm.cpp:98)
  using 1 OpenMP thread(s) per MPI task
Reading data file ...
  orthogonal box = (96.88897 96.88897 96.88897) to (103.11103 103.11103 103.11103)
  1 by 1 by 1 MPI processor grid
  reading atoms ...
  200 atoms
  scanning bonds ...
  4 = max bonds/atom
  reading bonds ...
  201 bonds
Finding 1-2 1-3 1-4 neighbors ...
  special bond factors lj:    0        0        0       
  special bond factors coul:  0        0        0       
     4 = max # of 1-2 neighbors
     4 = max # of 1-3 neighbors
    10 = max # of 1-4 neighbors
    12 = max # of special neighbors
  special bonds CPU = 0.000 seconds
  read_data CPU = 0.004 seconds
Finding 1-2 1-3 1-4 neighbors ...
  special bond factors lj:    0        1        1       
  special bond factors coul:  0        0        0       
     4 = max # of 1-2 neighbors
     4 = max # of 1-3 neighbors
    10 = max # of 1-4 neighbors
    12 = max # of special neighbors
  special bonds CPU = 0.000 seconds
Generated 0 of 1 mixed pair_coeff terms from geometric mixing rule
Neighbor list info ...
  update every 1 steps, delay 0 steps, check yes
  max neighbors/atom: 2000, page size: 100000
  master list distance cutoff = 5.5
  ghost atom cutoff = 5.5
  binsize = 2.75, bins = 3 3 3
  1 neighbor lists, perpetual/occasional/extra = 1 0 0
  (1) pair lj/cut, perpetual
      attributes: half, newton on
      pair build: half/bin/newton
      stencil: half/bin/3d
      bin: standard
Setting up Verlet run ...
  Unit style    : lj
  Current step  : 0
  Time step     : 0.002
WARNING: Inconsistent image flags (src/domain.cpp:819)
Per MPI rank memory allocation (min/avg/max) = 8.748 | 8.748 | 8.748 Mbytes
   Step          Temp         Density         PotEng        Enthalpy        Press           Pxx            Pyy            Pzz            Pxy            Pxz            Pyz             Lx             Ly             Lz             Xy             Yz             Xz          Density    
         0   1.5            0.91331388    -4.2919663      1.4196926      2.8835054      2.2878181      3.1317951      3.2309029      0.23273668    -0.035318446    0.30319234     6.2220602      6.2220602      6.2220602      0              0              0              0.91331388   
      1000   1.326381       0.7825653     -2.8628426      0.10030915     0.69970454     0.8424708      0.2007818      1.055861       0.082341799    0.22145293     0.33186343     6.5508959      6.5508959      6.5508959      0              0              0              0.7825653    
      2000   1.3906698      0.74678772    -2.7388457     -0.81315685    -0.10175713    -0.81784768     0.12238199     0.3901943     -0.4609738      0.62632418    -0.05123812     6.6538832      6.6538832      6.6538832      0              0              0              0.74678772   
      3000   1.4528817      0.78234584    -2.8746892      0.35772463     0.7567332      0.7200211      0.77657758     0.77360093     0.23446402    -0.056504323   -0.25113086     6.5515084      6.5515084      6.5515084      0              0              0              0.78234584   
      4000   1.6130417      0.78913258    -2.8432783      1.845352       1.6364928      2.0998024      1.1695268      1.6401492      0.1884989     -0.21151488     0.48669193     6.5326727      6.5326727      6.5326727      0              0              0              0.78913258   
      5000   1.4871359      0.76261837    -2.8509224     -0.744607      -0.078504583   -0.11882943    -0.73801894     0.62133462    -0.39857805     0.017643772    0.12547815     6.6075198      6.6075198      6.6075198      0              0              0              0.76261837   
      6000   1.3396691      0.78502242    -2.978145      -0.52259714     0.32549292    -0.48366264     1.1654181      0.29472326     0.16754529    -0.15173237     0.16422527     6.544054       6.544054       6.544054       0              0              0              0.78502242   
      7000   1.4150484      0.77322753    -2.8579457     -0.48814588     0.18124455     0.40166503    -0.21491756     0.35698616     0.10943812     0.61455592    -0.3795194      6.5771608      6.5771608      6.5771608      0              0              0              0.77322753   
      8000   1.3993683      0.7946822     -3.2312271     -0.25866981     0.63863555     0.6374066      0.54750665     0.7309934      0.41714331    -0.57761736     0.15223505     6.5174304      6.5174304      6.5174304      0              0              0              0.7946822    
      9000   1.3990806      0.81860518    -3.0764966      2.0002905      2.22412        2.2027531      2.0046568      2.4649501      0.092817093   -0.20048028     0.05061094     6.453313       6.453313       6.453313       0              0              0              0.81860518   
     10000   1.4243645      0.79058596    -2.9439518      0.28459319     0.79251275     1.5217649     -0.00097830535  0.85675163    -0.06901399    -0.63596929     0.73388528     6.5286671      6.5286671      6.5286671      0              0              0              0.79058596   
     11000   1.4138889      0.79328348    -3.1537259     -0.1491899      0.64494434    -0.20814703     1.1285434      1.0144366     -0.51247439     0.13626234     0.44626561     6.5212586      6.5212586      6.5212586      0              0              0              0.79328348   
     12000   1.3244656      0.81149447    -3.051241      -0.37890917     0.51313522    -0.21362349     0.93927694     0.8137522      0.4298715      0.12157461    -0.098835272    6.4721072      6.4721072      6.4721072      0              0              0              0.81149447   
     13000   1.3782659      0.79139937    -3.0314868     -0.27703884     0.50173722     1.1549208     -0.47151217     0.82180303     0.065253206   -0.063931414   -0.45744605     6.5264296      6.5264296      6.5264296      0              0              0              0.79139937   
     14000   1.3855548      0.79859005    -3.2206742      0.42537027     1.1456892      0.80602242     1.0275276      1.6035177     -0.14387685     0.077361228   -0.36084642     6.5067821      6.5067821      6.5067821      0              0              0              0.79859005   
     15000   1.3988125      0.77824499    -2.954709      -0.31191467     0.39270715     0.02087679     0.20616012     0.95108455     0.13620395     0.02568759     0.19182741     6.5629957      6.5629957      6.5629957      0              0              0              0.77824499   
     16000   1.3282037      0.81227605    -3.1024258      1.46187        1.9065978      2.2777252      1.7149276      1.7271407      0.16790447    -0.38082873     0.0086820625   6.4700307      6.4700307      6.4700307      0              0              0              0.81227605   
     17000   1.4014551      0.83210041    -3.2689051      1.2538617      1.8390138      1.3622844      2.325738       1.8290189      0.23885892     0.007984551   -0.050460034    6.4182355      6.4182355      6.4182355      0              0              0              0.83210041   
     18000   1.4052106      0.80097994    -3.2991845      0.26629109     1.0690889      1.6389261      1.3300207      0.23831981     0.56172618    -0.20528311     0.30675165     6.5003042      6.5003042      6.5003042      0              0              0              0.80097994   
     19000   1.2286435      0.79247487    -3.055406       0.64010457     1.3412711      1.6026962      1.2854035      1.1357135     -0.3553311     -0.074564656   -0.19480072     6.5234759      6.5234759      6.5234759      0              0              0              0.79247487   
     20000   1.2575716      0.82682956    -3.4539556      0.01362216     1.1956347      0.7481124      1.3666431      1.4721487     -0.18081652     0.44639231     0.50545395     6.4318449      6.4318449      6.4318449      0              0              0              0.82682956   
     21000   1.2785449      0.81252629    -3.273093      -0.64340935     0.53291041     0.92434236     0.16769648     0.50669238     0.67219946    -0.080228514   -0.2530326      6.4693665      6.4693665      6.4693665      0              0              0              0.81252629   
     22000   1.3495751      0.76601831    -3.2160803     -0.56857465     0.44099308     0.64334586     0.42048746     0.25914592    -0.17078921    -0.3275891      0.47557985     6.5977296      6.5977296      6.5977296      0              0              0              0.76601831   
     23000   1.1969052      0.82068158    -3.2549137     -0.6286361      0.62662512     0.50976811     0.81955903     0.55054822    -0.38095296    -0.33948222    -0.53581259     6.4478659      6.4478659      6.4478659      0              0              0              0.82068158   
     24000   1.1929738      0.82402711    -3.3236772     -1.0208961      0.39123881     0.60138146     0.43513114     0.13720382    -0.11733629    -0.010582363   -0.58264367     6.439128       6.439128       6.439128       0              0              0              0.82402711   
     25000   1.1034102      0.80920532    -3.2100755     -1.1579533      0.29814254     0.51497027     0.31498103     0.064476333   -0.3853434     -0.50398293    -0.57987731     6.4782045      6.4782045      6.4782045      0              0              0              0.80920532   
     26000   1.1927986      0.84181224    -3.3899923     -0.1187577      1.141025       0.8034055      1.3605788      1.2590907      0.28484071    -0.033994788    0.74780803     6.393458       6.393458       6.393458       0              0              0              0.84181224   
     27000   1.2668947      0.82438979    -3.2636992     -0.058508603    0.98503359     1.2348208      0.31575997     1.40452        0.22293019    -0.43189417    -0.056337188    6.4381836      6.4381836      6.4381836      0              0              0              0.82438979   
     28000   1.2114262      0.83871446    -3.3660742      0.89645544     1.8714586      1.6821375      2.1531294      1.779109       0.4169464     -0.10388054     0.49063468     6.4013197      6.4013197      6.4013197      0              0              0              0.83871446   
     29000   1.1798392      0.84405171    -3.4853112     -0.184663       1.1814715      1.0580252      1.455402       1.0309874      0.37261686     0.52056696     0.16985302     6.3877985      6.3877985      6.3877985      0              0              0              0.84405171   
     30000   1.2269872      0.83995183    -3.7128215     -1.6540059      0.17374576     0.3878195      0.68645497    -0.55303719    -0.028175555   -0.31044762     0.22986684     6.3981748      6.3981748      6.3981748      0              0              0              0.83995183   
     31000   1.2074002      0.85716613    -3.5512527      0.61479912     1.8421333      1.5745018      2.2002171      1.7516811     -0.17104366    -0.040236127   -0.083063115    6.3550537      6.3550537      6.3550537      0              0              0              0.85716613   
     32000   1.2278619      0.7997297     -3.1606577     -0.62831544     0.50874326     0.52440462     0.72327606     0.27854911    -0.0047668276   0.14983008    -0.21317227     6.5036898      6.5036898      6.5036898      0              0              0              0.7997297    
     33000   1.1339973      0.85144467    -3.4522186      0.92500137     2.0780892      1.6985139      2.4544268      2.0813269     -0.19538166    -0.12495156     0.036638408    6.3692567      6.3692567      6.3692567      0              0              0              0.85144467   
     34000   1.1316077      0.84095615    -3.4919857     -0.41379963     1.0620982      1.0460681      0.57314937     1.5670772     -0.3442272     -0.23741529     0.1168499      6.3956267      6.3956267      6.3956267      0              0              0              0.84095615   
     35000   1.037957       0.83736618    -3.5538858     -0.77124205     0.93898659     0.50611004     1.3495111      0.96133865     0.3468538      0.16241601    -0.6525771      6.4047535      6.4047535      6.4047535      0              0              0              0.83736618   
     36000   1.1525182      0.86569283    -3.7756882     -0.72220612     1.0493367      1.5371565      1.0935451      0.51730856     0.088531977   -0.77837692    -0.36642385     6.33412        6.33412        6.33412        0              0              0              0.86569283   
     37000   1.159714       0.82230675    -3.5300554     -1.0907988      0.52955313     0.30060943     1.0907871      0.19726289    -0.12461989    -0.082219282    0.18425242     6.4436154      6.4436154      6.4436154      0              0              0              0.82230675   
     38000   1.1066372      0.85924117    -3.7794601     -0.33202423     1.4027346      1.4247615      1.0679585      1.7154837      0.60087953     0.43129456     0.018119821    6.3499338      6.3499338      6.3499338      0              0              0              0.85924117   
     39000   1.0504791      0.83566517    -3.5920779     -1.6542749      0.2810593      0.35118705    -0.23635295     0.7283438     -0.065848473    0.33599768     0.31724085     6.4090962      6.4090962      6.4090962      0              0              0              0.83566517   
     40000   1.1975828      0.87281514    -3.7715455      0.25376641     1.7757182      1.1992506      1.6339885      2.4939154     -0.38537098    -0.17437608    -0.028552569    6.3168438      6.3168438      6.3168438      0              0              0              0.87281514   
     41000   1.1431106      0.86781685    -3.8277512     -1.1538997      0.76348866     0.65020018     0.5467064      1.0935594     -0.49774434     0.72623647    -0.046850287    6.3289481      6.3289481      6.3289481      0              0              0              0.86781685   
     42000   1.0549669      0.84887442    -3.7907256     -2.0068362      0.16155716     0.040252035    0.4073736      0.037045845   -0.63007672    -0.73552142    -0.24534371     6.3756785      6.3756785      6.3756785      0              0              0              0.84887442   
     43000   1.0639082      0.86303345    -3.6863313     -0.31372239     1.4002529      1.2985214      1.2981024      1.6041349     -0.071384816    0.052162588    0.075898785    6.3406194      6.3406194      6.3406194      0              0              0              0.86303345   
     44000   1.1732714      0.84403153    -3.6257536     -0.6411415      0.94646973     0.36934771     1.1147848      1.3552767      0.11825378    -0.070693246    0.43987133     6.3878494      6.3878494      6.3878494      0              0              0              0.84403153   
     45000   1.0514343      0.86808495    -3.7218303     -0.24888893     1.5023202      1.9218466      1.2333895      1.3517245      0.11060684    -0.12443043     0.029230138    6.3282965      6.3282965      6.3282965      0              0              0              0.86808495   
     46000   0.99277043     0.85423142    -3.8555793     -1.4101965      0.74836335     0.89936965     0.62041624     0.72530416     0.10517436     0.67259139    -0.15316967     6.362323       6.362323       6.362323       0              0              0              0.85423142   
     47000   1.0390254      0.87657362    -3.9193401     -1.1741359      0.95184642     1.9709967      0.18232409     0.70221853    -0.33918615    -0.5465267      0.26856769     6.3078026      6.3078026      6.3078026      0              0              0              0.87657362   
     48000   1.0845887      0.86269573    -3.8457628     -1.6992625      0.41389927     0.48824986     0.1553258      0.59812214    -0.34787653     0.3781309     -0.52880616     6.3414467      6.3414467      6.3414467      0              0              0              0.86269573   
     49000   1.0106653      0.89155212    -3.9477203     -1.0817281      1.1003165      1.2692528      1.3127708      0.71892592     0.013171962    0.50830942    -0.016548557    6.2722782      6.2722782      6.2722782      0              0              0              0.89155212   
     50000   0.96200603     0.87157582    -4.0141137     -1.5104123      0.84614756     0.99473256     1.8262754     -0.28256529     0.38625667     0.13984582    -0.07910792     6.3198364      6.3198364      6.3198364      0              0              0              0.87157582   
     51000   0.95694423     0.86730864    -3.9237076     -1.3166648      0.92944229     1.338079       0.84834086     0.601907      -0.28570682    -0.036313172   -0.16484268     6.330184       6.330184       6.330184       0              0              0              0.86730864   
     52000   1.1050349      0.89004943    -4.0263582     -0.86120164     1.2265626      1.090252       0.52966698     2.0597688      0.11850204     0.48303874    -0.11464817     6.2758061      6.2758061      6.2758061      0              0              0              0.89004943   
     53000   0.95432145     0.90944975    -4.0321279     -0.56869745     1.6858765      1.1658838      1.7222831      2.1694626     -0.17118575     0.3873823      0.16113181     6.23086        6.23086        6.23086        0              0              0              0.90944975   
     54000   0.93354015     0.86722697    -3.8842263     -1.9947646      0.39116116     0.012346605    0.84236523     0.31877165    -0.089067594   -0.46996681    -0.10121154     6.3303827      6.3303827      6.3303827      0              0              0              0.86722697   
     55000   0.86848764     0.8872689     -3.9621795     -1.0036755      1.3408135      1.9427013      1.4234752      0.65626391    -0.2570799     -0.16771924    -0.47224917     6.282355       6.282355       6.282355       0              0              0              0.8872689    
     56000   0.89804605     0.87641695    -3.931482      -1.7226354      0.69198121     0.47679773     0.3460639      1.253082       0.66779148     0.063198812   -0.2123087      6.3081785      6.3081785      6.3081785      0              0              0              0.87641695   
     57000   0.92105414     0.87738084    -3.9180675     -2.1322034      0.3279736      0.27535121     0.65487348     0.053696109   -0.36680752     0.53385354    -0.12664595     6.3058675      6.3058675      6.3058675      0              0              0              0.87738084   
     58000   0.89804502     0.91754586    -4.2671864     -1.4073479      1.2674698      1.7555579      1.1242882      0.92256319     0.17936173     0.098109769    0.24075846     6.2124795      6.2124795      6.2124795      0              0              0              0.91754586   
     59000   0.94614901     0.88265489    -4.1103468     -2.5069282      0.15349463     0.036805584   -0.083536045    0.50721434    -0.3895718     -0.48025158    -0.18236247     6.2932828      6.2932828      6.2932828      0              0              0              0.88265489   
     60000   0.87241788     0.92387881    -4.3791779     -2.4281687      0.54502592     0.599187       0.44253945     0.59335132     0.047648749   -0.16364019    -0.30923779     6.1982519      6.1982519      6.1982519      0              0              0              0.92387881   
     61000   0.91846628     0.91232255    -4.2230919     -1.1981318      1.371925       1.0775537      1.3889746      1.6492468      0.22385185    -0.35700265    -0.22343567     6.224313       6.224313       6.224313       0              0              0              0.91232255   
     62000   0.82234391     0.91419521    -4.2994217     -1.5379985      1.2749491      1.5324989      0.54826502     1.7440833      0.052498253    0.088649925   -0.37119903     6.2200601      6.2200601      6.2200601      0              0              0              0.91419521   
     63000   0.8258799      0.91511686    -4.3213845     -1.884573       1.0017916      1.1293017      0.53467328     1.3413997      0.029312221    0.17209947     0.23253386     6.2179712      6.2179712      6.2179712      0              0              0              0.91511686   
     64000   0.84285572     0.93631209    -4.2812376     -0.8877855      1.8177137      1.806197       1.8164342      1.83051       -0.19478844     0.45080122    -0.56746208     6.1706941      6.1706941      6.1706941      0              0              0              0.93631209   
     65000   0.89815591     0.90780782    -4.2896793     -2.1661672      0.646206       1.7871835     -0.091758188    0.24319274     0.050300109   -0.39794149     0.02107061     6.2346142      6.2346142      6.2346142      0              0              0              0.90780782   
     66000   0.84271334     0.91670547    -4.4121568     -1.7912511      1.1360115      0.53905006     1.4616445      1.40734       -0.1248745      0.22640744    -0.2915091      6.2143773      6.2143773      6.2143773      0              0              0              0.91670547   
     67000   0.79071255     0.9089692     -4.3485928     -1.4756355      1.3988365      1.4228823      1.224542       1.5490853      0.23419355     0.057740308    0.45942331     6.2319578      6.2319578      6.2319578      0              0              0              0.9089692    
     68000   0.82958592     0.90076308    -4.2593148     -2.3401552      0.55765636     0.36774628     1.0830546      0.2221682      0.24029012     0.47055967    -0.55915003     6.2508254      6.2508254      6.2508254      0              0              0              0.90076308   
     69000   0.87796649     0.93681265    -4.3496428     -1.4029665      1.3935611      1.7507107      1.9841186      0.44585386     0.010227465    0.60701635    -0.5104735      6.1695948      6.1695948      6.1695948      0              0              0              0.93681265   
     70000   0.7209061      0.92461478    -4.2856025     -1.3134862      1.5938375      1.2096252      1.8587468      1.7131404     -0.23291221    -0.53527453    -0.042926878    6.196607       6.196607       6.196607       0              0              0              0.92461478   
     71000   0.75991321     0.92940148    -4.4973514     -2.2357233      0.95260069     0.64916501     0.64590102     1.562736       0.65115663    -0.20954025    -0.15813461     6.1859505      6.1859505      6.1859505      0              0              0              0.92940148   
     72000   0.82402677     0.92066909    -4.4443765     -1.7676392      1.2109956      1.2672898      1.2603542      1.1053429     -0.61446771     0.18879499    -0.22232437     6.2054465      6.2054465      6.2054465      0              0              0              0.92066909   
     73000   0.82885973     0.95206373    -4.5498541     -1.1482558      1.8734236      2.1458121      2.1848597      1.2895988     -0.07331918    -0.090355974   -0.73630953     6.1364738      6.1364738      6.1364738      0              0              0              0.95206373   
     74000   0.69607485     0.94088391    -4.4881589     -2.0153201      1.2265252      1.0661562      1.1919948      1.4214247     -0.086640888   -0.14950817    -0.65854518     6.1606832      6.1606832      6.1606832      0              0              0              0.94088391   
     75000   0.66843847     0.93911531    -4.6408549     -2.9384549      0.60167881     0.49703161     0.25632556     1.0516793      0.14601585    -0.35579924    -0.36781204     6.1645482      6.1645482      6.1645482      0              0              0              0.93911531   
     76000   0.72196048     0.94919593    -4.6100081     -2.21075        1.1405297      2.0146103      0.39592008     1.0110588     -0.0041102162  -0.033901517   -0.041374113    6.1426477      6.1426477      6.1426477      0              0              0              0.94919593   
     77000   0.72580898     0.95191329    -4.6131904     -2.033137       1.2952801      0.68825951     1.5314641      1.6661166      0.4592817     -0.1023051     -0.36690129     6.1367971      6.1367971      6.1367971      0              0              0              0.95191329   
     78000   0.68087606     0.94787581    -4.6998        -2.662814       0.87961026     1.1069627      0.74413041     0.78773766     0.26609889     0.3304109      0.017761722    6.145498       6.145498       6.145498       0              0              0              0.94787581   
     79000   0.63921115     0.94244319    -4.6035986     -3.5835908      0.056533846   -0.2164336      0.77876587    -0.39273073     0.43379572     0.48039746    -0.013845272    6.1572837      6.1572837      6.1572837      0              0              0              0.94244319   
     80000   0.80574455     0.94150279    -4.7501802     -2.9496623      0.51178738     0.83820849     0.12191182     0.57524184     0.010002328    0.12201789    -0.60590884     6.1593331      6.1593331      6.1593331      0              0              0              0.94150279   
     81000   0.71265894     0.95514206    -4.689465      -2.0612157      1.3585644      1.7864718      1.2573893      1.031832      -0.17877348     0.068332934    0.2210447      6.1298743      6.1298743      6.1298743      0              0              0              0.95514206   
     82000   0.71806832     0.96739399    -4.7415413     -1.9224555      1.5367219      1.5098278      2.2065138      0.8938242      0.18827438    -0.45759169     0.18091069     6.1038862      6.1038862      6.1038862      0              0              0              0.96739399   
     83000   0.64208423     0.9466363     -4.7251349     -3.0378546      0.62733555     0.98174542     0.12844736     0.77181386    -0.14233419    -0.27695374    -0.091146651    6.1481791      6.1481791      6.1481791      0              0              0              0.9466363    
     84000   0.63031102     0.9656181     -4.8779653     -3.1240933      0.71379618     1.2376481      0.24538005     0.65836036    -0.18904555     0.28097437    -0.41098001     6.1076259      6.1076259      6.1076259      0              0              0              0.9656181    
     85000   0.66394239     0.96481772    -4.8060968     -2.5134055      1.1417804      1.1792268      1.4990378      0.74707676     0.1877017     -0.08109756    -0.075833033    6.1093143      6.1093143      6.1093143      0              0              0              0.96481772   
     86000   0.67590483     0.96049604    -4.7984513     -2.87093        0.80221794     0.57998486     0.64359522     1.1830737     -0.32151976    -0.03366809    -0.022249058    6.1184634      6.1184634      6.1184634      0              0              0              0.96049604   
     87000   0.65892045     0.94968981    -4.7566815     -2.3908244      1.1935169      1.510944       1.2568356      0.812771      -0.72048959    -0.28405466     0.12327907     6.1415827      6.1415827      6.1415827      0              0              0              0.94968981   
     88000   0.60829593     0.97115625    -4.9004191     -3.8690474      0.1090256      0.85729108    -0.31303387    -0.21718039    -0.39669536     0.10759474    -0.093324395    6.0959939      6.0959939      6.0959939      0              0              0              0.97115625   
     89000   0.6160515      0.97245249    -4.86599       -2.3808059      1.3841776      1.2622964      1.197256       1.6929803      0.10900671     0.29895668     0.14295534     6.0932841      6.0932841      6.0932841      0              0              0              0.97245249   
     90000   0.58656663     0.97655233    -4.9383879     -2.9841212      0.9577457      1.1932557      0.48312861     1.1968527     -0.34425562    -0.14638801     0.31414206     6.0847451      6.0847451      6.0847451      0              0              0              0.97655233   
     91000   0.56256891     0.95497716    -4.8422617     -3.4193119      0.50641195     1.1766279      0.96399649    -0.62138857    -0.32416964    -0.24882211     0.082241269    6.1302271      6.1302271      6.1302271      0              0              0              0.95497716   
     92000   0.57330758     0.99867802    -5.0585799     -2.6393458      1.4195505      1.3369937      1.2654363      1.6562215     -0.45658998    -0.10469713    -0.42850804     6.0394733      6.0394733      6.0394733      0              0              0              0.99867802   
     93000   0.55255386     0.9648339     -4.8808536     -3.4889487      0.49751946     0.57171502     0.27822354     0.64261981     0.043665809    0.058191163   -0.50078794     6.1092802      6.1092802      6.1092802      0              0              0              0.9648339    
     94000   0.58322923     0.99718721    -5.1167994     -2.6035314      1.4892523      1.7151399      1.1751773      1.5774396     -0.14191689    -0.017217089   -0.17200933     6.0424815      6.0424815      6.0424815      0              0              0              0.99718721   
     95000   0.58613116     0.97242727    -4.9132831     -2.8948614      1.0109892      1.9978487      0.98832476     0.04679427     0.011072559    0.094266878   -0.55070684     6.0933368      6.0933368      6.0933368      0              0              0              0.97242727   
     96000   0.52655674     0.99881001    -5.1115939     -2.9565838      1.2431772      1.5496227      1.5581893      0.62171963     0.046337632    0.056622776    0.057888216    6.0392072      6.0392072      6.0392072      0              0              0              0.99881001   
     97000   0.50975191     0.98382364    -5.1012359     -3.6291781      0.6361342      0.86924606     0.24810158     0.79105497    -0.0040340315  -0.061932133   -0.23432844     6.0697175      6.0697175      6.0697175      0              0              0              0.98382364   
     98000   0.59805588     0.97979794    -5.0737021     -3.2803875      0.80229085     0.79320006     0.59616961     1.0175029     -0.25981345     0.047360268   -0.23817116     6.078019       6.078019       6.078019       0              0              0              0.97979794   
     99000   0.53990534     1.0090436     -5.2612207     -2.9257231      1.4032025      1.5061738      1.489205       1.2142286      0.13753805    -0.43618848     0.07387908     6.0187216      6.0187216      6.0187216      0              0              0              1.0090436    
    100000   0.5495441      0.99216035    -5.1816869     -3.3794607      0.88575712     0.81267355     0.61120569     1.2333921      0.081204113   -0.045405896    0.33148511     6.0526692      6.0526692      6.0526692      0              0              0              0.99216035   
    101000   0.47984712     1.0039768     -5.2797447     -3.6264906      0.85528085     1.2215543      0.75867131     0.58561694     0.26643756     0.065339378   -0.36828042     6.0288294      6.0288294      6.0288294      0              0              0              1.0039768    
    102000   0.4784001      0.99873007    -5.172161      -3.5443003      0.82971642     0.79956512     0.25050002     1.4390841     -0.12463204    -0.03177332    -0.42339724     6.0393683      6.0393683      6.0393683      0              0              0              0.99873007   
    103000   0.45049438     1.0077279     -5.2733562     -3.2753139      1.2144765      1.2548273      0.83516009     1.5534422     -0.43194656     0.12862467     0.046653588    6.0213397      6.0213397      6.0213397      0              0              0              1.0077279    
    104000   0.45436276     0.99901992    -5.2357568     -3.7202062      0.7605395      0.71497046     0.77202556     0.79462249     0.3216916     -0.60148234     0.11208131     6.0387842      6.0387842      6.0387842      0              0              0              0.99901992   
    105000   0.46279017     1.0075481     -5.3604391     -3.9237751      0.68325468     0.77017573     0.75472612     0.5248622      0.20409894    -0.39296593    -0.049765587    6.021698       6.021698       6.021698       0              0              0              1.0075481    
    106000   0.41363885     1.0008788     -5.2748072     -3.6905814      0.87974497     1.3889565     -0.07384955     1.3241279      0.20073437     0.043301001   -0.5129995      6.0350434      6.0350434      6.0350434      0              0              0              1.0008788    
    107000   0.48089914     0.99697132    -5.3064914     -3.9077829      0.61718549     0.57427944     0.41991475     0.85736227    -0.45279573    -0.58348181     0.11507355     6.0429176      6.0429176      6.0429176      0              0              0              0.99697132   
    108000   0.44292235     1.0141697     -5.365349      -3.3961069      1.2061063      1.4070743      0.89009942     1.3211452     -0.48918646    -0.24677219    -0.31002849     6.008564       6.008564       6.008564       0              0              0              1.0141697    
    109000   0.4488296      1.0083531     -5.3535798     -4.0821637      0.55142055     0.61015529     0.46079482     0.58331154    -0.0065664776   0.067132365   -0.15876927     6.0200951      6.0200951      6.0200951      0              0              0              1.0083531    
    110000   0.41868689     1.0145704     -5.3833539     -3.6354879      1.0357618      0.67303443     1.0318601      1.4023908      0.18808092    -0.20906142    -0.5557         6.0077727      6.0077727      6.0077727      0              0              0              1.0145704    
    111000   0.38290364     1.0171315     -5.3678504     -3.680189       1.0320905      0.78519383     0.8119994      1.4990783     -0.024803865   -0.023706745   -0.16604305     6.002726       6.002726       6.002726       0              0              0              1.0171315    
    112000   0.33182824     1.021588      -5.367122      -3.4427934      1.3272052      1.208894       1.2042918      1.5684299     -0.25073909    -0.57796038     0.14549852     5.9939847      5.9939847      5.9939847      0              0              0              1.021588     
    113000   0.3679915      1.0060691     -5.37298       -4.263855       0.51208705     0.31006944     0.46840622     0.75778549     0.12166776     0.09935549    -0.40165845     6.0246472      6.0246472      6.0246472      0              0              0              1.0060691    
    114000   0.34577726     1.0361366     -5.4587187     -3.1156362      1.7209381      1.753225       1.8953768      1.5142125     -0.077581863   -0.082491851   -0.040296853    5.9657981      5.9657981      5.9657981      0              0              0              1.0361366    
    115000   0.36559494     1.025443      -5.4465549     -3.7076541      1.1123729      0.79859414     1.1647511      1.3737735     -0.27879215    -0.68970599    -0.024500859    5.9864642      5.9864642      5.9864642      0              0              0              1.025443     
    116000   0.34247236     1.0245807     -5.5009243     -4.3314802      0.61316887     0.70213018     0.39977367     0.73760277     0.041545766   -0.09047784     0.33995572     5.988143       5.988143       5.988143       0              0              0              1.0245807    
    117000   0.3470788      1.0149532     -5.4697938     -4.3110436      0.59119649     0.066680855    0.63163351     1.0752751     -0.26100983    -0.45090907    -0.55527925     6.0070173      6.0070173      6.0070173      0              0              0              1.0149532    
    118000   0.31872328     1.0360128     -5.5491526     -3.8642648      1.1388544      1.5175998      1.3104108      0.58855249    -0.26414132    -0.75715014    -0.08223429     5.9660358      5.9660358      5.9660358      0              0              0              1.0360128    
    119000   0.29675664     1.026976      -5.4796555     -3.7964724      1.1579376      0.69936262     1.4087442      1.365706      -0.0042414751  -0.27820649     0.071928241    5.9834839      5.9834839      5.9834839      0              0              0              1.026976     
    120000   0.28691476     1.0375186     -5.5578969     -3.7820809      1.2710507      1.2386767      1.269389       1.3050864      0.20157025    -0.63528       -0.2752232      5.9631481      5.9631481      5.9631481      0              0              0              1.0375186    
    121000   0.31143508     1.0240989     -5.5000491     -4.0073328      0.95697335     0.68861826     0.88045344     1.3018484     -0.24699562    -0.1379242     -0.30501101     5.989082       5.989082       5.989082       0              0              0              1.0240989    
    122000   0.26669012     1.0380602     -5.5632096     -3.5127844      1.5593458      0.72569251     1.7164826      2.2358625      0.06488734    -0.29027309     0.20484077     5.9621109      5.9621109      5.9621109      0              0              0              1.0380602    
    123000   0.25685793     1.0389294     -5.5872802     -3.942626       1.1912683      0.973167       1.2374007      1.3632372      0.076188678   -0.078248165   -0.29335635     5.9604477      5.9604477      5.9604477      0              0              0              1.0389294    
    124000   0.23204494     1.0277281     -5.5847238     -4.42783        0.75731116     0.78736945     0.76005658     0.72450745     0.0059713027  -0.078540944   -0.0018675047   5.9820239      5.9820239      5.9820239      0              0              0              1.0277281    
    125000   0.24456573     1.0371167     -5.6437536     -3.9662923      1.2374188      0.42721971     1.0778297      2.207207      -0.17883603     0.014232873   -0.18814378     5.9639183      5.9639183      5.9639183      0              0              0              1.0371167    
    126000   0.26189244     1.0470955     -5.6466409     -3.7211763      1.4607839      0.99941846     1.574457       1.8084763      0.023933627   -0.42898575     0.0062649314   5.9449125      5.9449125      5.9449125      0              0              0              1.0470955    
    127000   0.22781538     1.0378835     -5.65243       -4.703788       0.57425862    -0.019256751    0.78239749     0.95963512     0.0616884      0.22258563     0.2034986      5.9624492      5.9624492      5.9624492      0              0              0              1.0378835    
    128000   0.20682855     1.0383993     -5.6755663     -4.4064302      0.90665893     0.55007386     1.0097564      1.1601465     -0.16907767    -0.38908818     0.013503966    5.9614618      5.9614618      5.9614618      0              0              0              1.0383993    
    129000   0.22619662     1.0406142     -5.6743927     -4.3839214      0.90143001     0.40402061     1.1715469      1.1287225     -0.24335229    -0.21855236     0.030286261    5.9572292      5.9572292      5.9572292      0              0              0              1.0406142    
    130000   0.19368094     1.0494457     -5.7059176     -4.1082545      1.2484534      1.3767594      1.0882595      1.2803412     -0.068176387   -0.32929157    -0.1222074      5.9404713      5.9404713      5.9404713      0              0              0              1.0494457    
    131000   0.19427288     1.0476943     -5.7150884     -4.3508668      1.0231873      0.73780057     1.0371583      1.2946029     -0.29899163    -0.38837776     0.14083081     5.9437796      5.9437796      5.9437796      0              0              0              1.0476943    
    132000   0.17864231     1.0435209     -5.7260106     -4.4946771      0.91517724     0.66086363     1.2376949      0.84697323    -0.36314764    -0.39244401     0.1253716      5.9516928      5.9516928      5.9516928      0              0              0              1.0435209    
    133000   0.17035192     1.0494065     -5.7488338     -4.3304098      1.1106287      0.7064732      1.0671834      1.5582293      0.13650706    -0.37880937    -0.2023869      5.9405452      5.9405452      5.9405452      0              0              0              1.0494065    
    134000   0.14969493     1.0514644     -5.7666769     -4.2323531      1.2530627      1.208091       1.1853592      1.365738      -0.2553462     -0.30005195     0.21127371     5.9366672      5.9366672      5.9366672      0              0              0              1.0514644    
    135000   0.15883572     1.0521814     -5.7742299     -4.5105648      0.98197493     0.62371138     1.2025036      1.1197098     -0.1746173     -0.31649732     0.18876516     5.9353183      5.9353183      5.9353183      0              0              0              1.0521814    
    136000   0.13750904     1.0509451     -5.7859365     -4.5133721      1.0197342      0.52108547     1.2314205      1.3066965     -0.021155277   -0.33470921     0.2445174      5.9376448      5.9376448      5.9376448      0              0              0              1.0509451    
    137000   0.12613556     1.0533562     -5.8162772     -4.5496758      1.0326187      0.29911581     1.4086858      1.3900544      0.030689226   -0.34960492     0.082961602    5.9331109      5.9331109      5.9331109      0              0              0              1.0533562    
    138000   0.11957457     1.0515228     -5.8356467     -4.8438813      0.77745801     0.55578163     0.84007162     0.93652077     0.013411509   -0.48749146     0.33098339     5.9365573      5.9365573      5.9365573      0              0              0              1.0515228    
    139000   0.11059239     1.0536732     -5.8434117     -4.7828433      0.85779461     0.36569637     0.89741829     1.3102692     -0.010339907   -0.2492484     -0.041562575    5.9325159      5.9325159      5.9325159      0              0              0              1.0536732    
    140000   0.089129163    1.0576112     -5.8470649     -4.6566923      1.0166022      0.71242147     1.0076704      1.3297146     -0.12277226    -0.23968595     0.0091811261   5.9251436      5.9251436      5.9251436      0              0              0              1.0576112    
Loop time of 73.7995 on 1 procs for 140000 steps with 200 atoms

Performance: 327807.098 tau/day, 1897.032 timesteps/s
50.1% CPU use with 1 MPI tasks x 1 OpenMP threads

MPI task timing breakdown:
Section |  min time  |  avg time  |  max time  |%varavg| %total
---------------------------------------------------------------
Pair    | 65.599     | 65.599     | 65.599     |   0.0 | 88.89
Bond    | 0.97524    | 0.97524    | 0.97524    |   0.0 |  1.32
Neigh   | 0.37825    | 0.37825    | 0.37825    |   0.0 |  0.51
Comm    | 3.5206     | 3.5206     | 3.5206     |   0.0 |  4.77
Output  | 0.8754     | 0.8754     | 0.8754     |   0.0 |  1.19
Modify  | 1.7289     | 1.7289     | 1.7289     |   0.0 |  2.34
Other   |            | 0.7224     |            |       |  0.98

Nlocal:            200 ave         200 max         200 min
Histogram: 1 0 0 0 0 0 0 0 0 0
Nghost:           4293 ave        4293 max        4293 min
Histogram: 1 0 0 0 0 0 0 0 0 0
Neighs:          62631 ave       62631 max       62631 min
Histogram: 1 0 0 0 0 0 0 0 0 0

Total # of neighbors = 62631
Ave neighs/atom = 313.155
Ave special neighs/atom = 8.08
Neighbor list builds = 115
Dangerous builds = 0
System init for write_data ...
Generated 0 of 1 mixed pair_coeff terms from geometric mixing rule
WARNING: Not all mixed pair coeffs generated from mixing. Use write_data with 'pair ij' option to store all pair coeffs. (src/write_data.cpp:309)
Total wall time: 0:01:13
