LAMMPS (23 Jun 2022)
OMP_NUM_THREADS environment is not set. Defaulting to 1 thread. (src/comm.cpp:98)
  using 1 OpenMP thread(s) per MPI task
Reading data file ...
  orthogonal box = (0 0 0) to (200 200 200)
  2 by 2 by 3 MPI processor grid
  reading atoms ...
  200 atoms
  scanning bonds ...
  1 = max bonds/atom
  reading bonds ...
  80 bonds
Finding 1-2 1-3 1-4 neighbors ...
  special bond factors lj:    0        0        0       
  special bond factors coul:  0        0        0       
     1 = max # of 1-2 neighbors
     0 = max # of 1-3 neighbors
     0 = max # of 1-4 neighbors
     1 = max # of special neighbors
  special bonds CPU = 0.001 seconds
  read_data CPU = 0.007 seconds
Generated 0 of 1 mixed pair_coeff terms from geometric mixing rule
Neighbor list info ...
  update every 1 steps, delay 0 steps, check yes
  max neighbors/atom: 2000, page size: 100000
  master list distance cutoff = 5.5
  ghost atom cutoff = 5.5
  binsize = 2.75, bins = 73 73 73
  1 neighbor lists, perpetual/occasional/extra = 1 0 0
  (1) pair lj/cut, perpetual
      attributes: half, newton on
      pair build: half/bin/newton
      stencil: half/bin/3d
      bin: standard
Setting up Verlet run ...
  Unit style    : lj
  Current step  : 0
  Time step     : 0.002
Per MPI rank memory allocation (min/avg/max) = 6.325 | 6.364 | 6.44 Mbytes
   Step          Temp         Density         PotEng        Enthalpy        Press           Pxx            Pyy            Pzz            Pxy            Pxz            Pyz             Lx             Ly             Lz             Xy             Yz             Xz          Density    
         0   1              2.75e-05      -0.00010633114  2.4871821      2.4869712e-05  2.4540716e-05  2.7043483e-05  2.3024937e-05 -8.5779994e-07  1.022554e-06   4.9452442e-07  200            200            200            0              0              0              2.75e-05     
       100   2.5466177      0.00020837985  4.8355202     -3.0674222     -0.0022171179  -0.0064439493  -9.3347134e-05 -0.00011405743 -0.00011351267  0.00013683805 -1.8566949e-05  101.82529      101.82529      101.82529      0              0              0              0.00020837985
       200   4.2757708      0.00048094444  1.6397412      17.191181      0.0040092631   0.0058137833   0.0033749816   0.0028390244  -5.7459778e-05 -0.00010482176  6.10212e-05    77.050582      77.050582      77.050582      0              0              0              0.00048094444
       300   3.4107592      0.0008325347   0.10086841     9.1546591      0.0029995715   0.0035863164   0.0029161275   0.0024962706  -3.3681308e-05 -0.00010296744  3.7609506e-05  64.171193      64.171193      64.171193      0              0              0              0.0008325347 
       400   2.6514599      0.0012518469   1.5320393      0.85344826    -0.0052758461  -0.0047010739  -0.0060325657  -0.0050938986  -0.00033207409 -0.00022491283 -0.00010612277  56.013214      56.013214      56.013214      0              0              0              0.0012518469 
       500   1.8180052      0.0017357888   1.642919       11.380835      0.011084658    0.010079981    0.012881217    0.010292777   -0.00063313851  0.00062184077  4.7896121e-05  50.231398      50.231398      50.231398      0              0              0              0.0017357888 
       600   1.8871615      0.0022800213   0.3363996      2.2530806     -0.0018652802  -0.002071158   -0.0023405088  -0.0011841737   1.5478805e-05 -0.00041077695 -0.00019716591  45.866394      45.866394      45.866394      0              0              0              0.0022800213 
       700   1.9953618      0.0028744426   0.24848751     2.5799948     -0.0016895715  -0.0010895632  -0.0019648875  -0.0020142636  -0.0002618452  -0.00049057855  0.00031518307  42.457688      42.457688      42.457688      0              0              0              0.0028744426 
       800   1.0015155      0.0035284482   0.96222681     7.7454818      0.016963795    0.016268185    0.019566352    0.015056847   -0.0011953229   0.0015453702  -0.00025926372  39.653328      39.653328      39.653328      0              0              0              0.0035284482 
       900   0.95406789     0.0042288503   0.66577926    -1.4119087     -0.013461715   -0.013554256   -0.016141154   -0.010689736    0.00084732984 -0.0016677048  -4.9690241e-05  37.330757      37.330757      37.330757      0              0              0              0.0042288503 
      1000   1.4195805      0.0049743299   0.039408339    3.9306047      0.0080153295   0.0072645779   0.010148033    0.0066333773  -0.0010486193   0.00022367987  0.00045325365  35.364107      35.364107      35.364107      0              0              0              0.0049743299 
      1100   0.91432057     0.0057769447   0.33540732     5.3327354      0.019078122    0.021344832    0.020405003    0.01548453    -0.0011909929   0.0016629767  -0.0006548027   33.644041      33.644041      33.644041      0              0              0              0.0057769447 
      1200   0.67962676     0.0066115943   0.68338716    -2.3036655     -0.02405055    -0.029577075   -0.025572544   -0.01700203     0.0012595485  -0.0027911488   0.00034856287  32.164156      32.164156      32.164156      0              0              0              0.0066115943 
      1300   1.0047429      0.0074960018   0.23977042     4.9066349      0.021583617    0.023597429    0.024239294    0.016914129   -0.0023241901   0.00091683534 -4.0732309e-05  30.845916      30.845916      30.845916      0              0              0              0.0074960018 
      1400   1.0314615      0.0084301038  -0.016479143    3.3097976      0.013693711    0.018087714    0.012728589    0.01026483    -0.00071717089  0.0010152917  -0.00072976218  29.661737      29.661737      29.661737      0              0              0              0.0084301038 
      1500   0.88554559     0.009384273    0.40224752    -1.0291871     -0.023487226   -0.035176439   -0.021366221   -0.013919019    0.0015828333  -0.0016500342   0.0023957463   28.620289      28.620289      28.620289      0              0              0              0.009384273  
      1600   0.86335859     0.010398369    0.45739518     5.5368262      0.035835317    0.044667375    0.035309546    0.027529029   -0.0037427082   5.9644814e-05 -0.00097712873  27.657897      27.657897      27.657897      0              0              0              0.010398369  
      1700   1.1010015      0.011447597    0.039319828    1.4513676     -0.0024060453  -0.0023900231  -0.0041260906  -0.00070202217  0.0013720136   0.0010962488   0.00029920684  26.785687      26.785687      26.785687      0              0              0              0.011447597  
      1800   1.1817429      0.012516745    0.11637408     0.96769099    -0.010382462   -0.024099342   -0.0010143527  -0.0060336914   0.0011118694  -0.00038958586  0.0017080089   26.000224      26.000224      26.000224      0              0              0              0.012516745  
      1900   0.91234536     0.013652701    0.44814049     5.7278605      0.048628991    0.064818994    0.042287415    0.038780566   -0.0062135868  -0.002918668    0.00010794715  25.25814       25.25814       25.25814       0              0              0              0.013652701  
      2000   0.99023878     0.014803528    0.26788722    -0.22112925    -0.026470698   -0.037033862   -0.024472565   -0.017905666    0.003832259    0.0073873396  -0.0043533973   24.585883      24.585883      24.585883      0              0              0              0.014803528  
      2100   1.2409656      0.015987072   -0.047730532    2.7961966      0.014414321    0.012845205    0.016237877    0.01415988    -0.0017220736   0.0010460759   0.0021993269   23.963555      23.963555      23.963555      0              0              0              0.015987072  
      2200   0.9733418      0.017233051    0.17906442     4.7985051      0.049611259    0.065632564    0.044034587    0.039166627   -0.0040380487  -0.0085533032   0.0011507312   23.371514      23.371514      23.371514      0              0              0              0.017233051  
      2300   0.8388134      0.018477367    0.32216579    -1.1130055     -0.045136852   -0.06488767    -0.040493294   -0.030029592    0.0047045049   0.0072477553  -0.0024690907   22.834642      22.834642      22.834642      0              0              0              0.018477367  
      2400   1.048962       0.019777363   -0.0021872864   3.6615051      0.037722921    0.047133911    0.033314208    0.032720643   -0.0058087488  -0.0048082478   0.0017397805   22.322942      22.322942      22.322942      0              0              0              0.019777363  
      2500   0.99948221     0.021123475   -0.050638933    3.4337878      0.038266126    0.047664898    0.034192071    0.032941409   -0.0020239677  -0.00085161801 -0.0011101064   21.838314      21.838314      21.838314      0              0              0              0.021123475  
      2600   0.84328913     0.02246009     0.22766711    -0.87060966    -0.048123515   -0.069360466   -0.035315221   -0.039694858    0.0035980438   0.002972961    0.0060541389   21.39622       21.39622       21.39622       0              0              0              0.02246009   
      2700   0.91717077     0.023870503    0.14811546     4.4055546      0.062683113    0.074499427    0.062257816    0.051292095   -0.0018097768  -0.0029040737   0.00056141369  20.966231      20.966231      20.966231      0              0              0              0.023870503  
      2800   1.0535337      0.025303034   -0.072023404    2.0756581      0.013233083    0.012261227    0.019728883    0.0077091401  -0.0029232708   0.0010427304   0.0021031556   20.562853      20.562853      20.562853      0              0              0              0.025303034  
      2900   1.0307715      0.026731237    0.085905191    0.24194811    -0.033593474   -0.038002251   -0.037581349   -0.025196823    0.0056577673  -0.0032199497  -0.002165644    20.189917      20.189917      20.189917      0              0              0              0.026731237  
      3000   0.96396007     0.028244703    0.20855773     5.1919919      0.091017883    0.099580244    0.094510257    0.078963147   -0.00042157317  0.0027585641   0.0077981513   19.822658      19.822658      19.822658      0              0              0              0.028244703  
      3100   1.0639843      0.029746807    0.044711111    0.89198832    -0.02003094    -0.025211717   -0.018079621   -0.016801482   -0.0036560157  -0.0012945863   0.0017453102   19.483222      19.483222      19.483222      0              0              0              0.029746807  
      3200   1.155726       0.031273063   -0.04904041     1.5621615     -0.0032330411  -0.00044322619 -0.0020157286  -0.0072401684   0.0036540007   0.0027943336  -0.0070678391   19.160967      19.160967      19.160967      0              0              0              0.031273063  
      3300   0.99138027     0.032887644    0.10199444     4.6546805      0.091877643    0.092793154    0.10371306     0.079126718    0.0017605514  -0.0052144001   0.003039312    18.842129      18.842129      18.842129      0              0              0              0.032887644  
      3400   0.93227603     0.034461297    0.12504216    -0.23390282    -0.054836286   -0.076470405   -0.042871974   -0.045166481   -0.0026151761   0.0033412758   0.010661286    18.550845      18.550845      18.550845      0              0              0              0.034461297  
      3500   1.0676944      0.036094777   -0.10483607     2.6597971      0.038427787    0.038039219    0.051772829    0.025471314    0.0027259665  -0.0032116085   0.0012386478   18.266672      18.266672      18.266672      0              0              0              0.036094777  
      3600   1.0085059      0.037787374   -0.12362325     3.5231279      0.073567078    0.069015225    0.075251488    0.076434523    0.0037844949  -0.0056603216  -0.004073623    17.989758      17.989758      17.989758      0              0              0              0.037787374  
      3700   0.88008223     0.039440022    0.040027056   -0.39567241    -0.062717601   -0.068351944   -0.052351766   -0.067449094   -0.0072821368   0.0094034049   0.0046196085   17.73489       17.73489       17.73489       0              0              0              0.039440022  
      3800   0.95331012     0.04117753    -0.080049793    3.2553306      0.071595186    0.067486516    0.083682096    0.063616946   -0.0096045062  -0.0048342867   0.007446549    17.481853      17.481853      17.481853      0              0              0              0.04117753   
      3900   1.0129743      0.042939743   -0.21410456     2.4497241      0.044968236    0.024357023    0.062640739    0.047906946   -0.00025258626 -0.00040076848  0.0052775963   17.239358      17.239358      17.239358      0              0              0              0.042939743  
      4000   0.94821018     0.044670651   -0.07350995     0.41230754    -0.037742079   -0.032895483   -0.049050265   -0.031280489    0.014117679   -0.0084070732  -0.00066415904  17.013753      17.013753      17.013753      0              0              0              0.044670651  
      4100   0.98042196     0.046498994   -0.10995604     3.7644112      0.10192104     0.10173986     0.10611238     0.097910876   -0.013172981    0.0049839994   0.00031128429  16.787771      16.787771      16.787771      0              0              0              0.046498994  
      4200   1.0714584      0.048313082   -0.25594946     1.3999402      0.0024919923  -0.011713336    0.022633783   -0.0034444697  -0.0014994507  -0.0052761066  -0.013166629    16.574966      16.574966      16.574966      0              0              0              0.048313082  
      4300   1.0323569      0.050140416   -0.17054757     0.86251451    -0.023143478   -0.049559076   -0.00043322266 -0.019438135   -0.0029105455   0.0074866211   0.011376347    16.371115      16.371115      16.371115      0              0              0              0.050140416  
      4400   1.0148407      0.052063865   -0.17952026     3.7036417      0.11210354     0.1347928      0.10587008     0.095647758    0.0026035768   0.014965058   -0.024668863    16.166975      16.166975      16.166975      0              0              0              0.052063865  
      4500   1.0169444      0.053932748   -0.22233454     0.72515107    -0.027961874   -0.027048553   -0.014521904   -0.042315164   -0.0018807161  -0.008293347    0.011492295    15.978035      15.978035      15.978035      0              0              0              0.053932748  
      4600   1.0264207      0.05584885    -0.25639309     1.6251543      0.017750515   -0.011427216    0.041063357    0.023615404   -0.0094724014  -0.0057538831   0.019831137    15.793176      15.793176      15.793176      0              0              0              0.05584885   
      4700   0.9721857      0.057848468   -0.23908638     3.0177082      0.094966537    0.13569782     0.08247251     0.06672928    -0.0099342272  -0.012912535   -0.014103548    15.609067      15.609067      15.609067      0              0              0              0.057848468  
      4800   0.90976481     0.059800865   -0.17499413     0.19128141    -0.053904958   -0.082545369   -0.033546206   -0.0456233      0.0047955122   0.008265675    0.0065764229   15.437314      15.437314      15.437314      0              0              0              0.059800865  
      4900   0.9932492      0.061818874   -0.29560466     2.2454663      0.059494852    0.073628296    0.052905261    0.051950997    0.0030420708   0.022625573    0.0011904587   15.267474      15.267474      15.267474      0              0              0              0.061818874  
      5000   0.98129552     0.063867274   -0.29401043     2.4631722      0.075049798    0.0674835      0.072657154    0.085008741    0.0073861072  -0.020422296   -0.00099603384  15.102474      15.102474      15.102474      0              0              0              0.063867274  
      5100   0.94686112     0.065880851   -0.21487746     0.60526022    -0.035518914   -0.025411416   -0.035168748   -0.04597658    -0.021265013    0.026915254   -0.0089185648   14.947016      14.947016      14.947016      0              0              0              0.065880851  
      5200   1.0168629      0.067977492   -0.2882717      2.5232572      0.079957659    0.094585834    0.084666634    0.060620509    0.012086735   -0.0019031159  -0.010505805    14.791737      14.791737      14.791737      0              0              0              0.067977492  
      5300   1.0450812      0.070091128   -0.32672904     1.8901428      0.041869134    0.022690652    0.043149429    0.059767322    0.00011016557 -0.012282753   -0.0052128413   14.641533      14.641533      14.641533      0              0              0              0.070091128  
      5400   1.0242993      0.072188312   -0.28018381     0.58975539    -0.043236045   -0.043356258   -0.032546315   -0.053805561    0.015953124    0.0025696556   0.0086127573   14.498351      14.498351      14.498351      0              0              0              0.072188312  
      5500   1.0492025      0.074370509   -0.33075581     2.6933753      0.098588001    0.11477058     0.10556232     0.075431102   -0.0026371789  -0.01485083    -0.009629139    14.355136      14.355136      14.355136      0              0              0              0.074370509  
      5600   1.041167       0.076525677   -0.36117692     1.4806515      0.020027929    0.011133466    0.0080460153   0.040904306    0.010650997   -0.01925169     0.0061079064   14.219091      14.219091      14.219091      0              0              0              0.076525677  
      5700   0.99619309     0.078698022   -0.33312059     1.1351355     -0.0013279981  -0.026697113    0.0060291834   0.016683935   -0.0028026996   0.0032738964  -0.040337614    14.087036      14.087036      14.087036      0              0              0              0.078698022  
      5800   0.97019619     0.080940573   -0.34776802     2.2594012      0.08529307     0.099493689    0.085447195    0.070938328   -0.014534826    0.003616781    0.0012879465   13.955716      13.955716      13.955716      0              0              0              0.080940573  
      5900   0.94630013     0.083184775   -0.35582779     0.87783534    -0.013512974   -0.0089113109   0.011747713   -0.043375325    0.0017692747  -0.015826351   -0.0034691817   13.829069      13.829069      13.829069      0              0              0              0.083184775  
      6000   0.94548412     0.085457463   -0.35070064     1.390672       0.025655698    0.026315995    0.0074416586   0.043209441   -0.0020958577  -0.0046076391  -0.041670114    13.705374      13.705374      13.705374      0              0              0              0.085457463  
      6100   0.94348078     0.087787871   -0.3341401      2.0148923      0.07508954     0.059056873    0.095970737    0.07024101    -0.010151394    0.031481863    0.019622808    13.583011      13.583011      13.583011      0              0              0              0.087787871  
      6200   0.98233688     0.09007921    -0.34495448     1.0606038     -0.0049608691   0.0010909377   0.018095258   -0.034068803    0.023757731   -0.0098612472  -0.0036702115   13.46685       13.46685       13.46685       0              0              0              0.09007921   
      6300   1.0576506      0.092413649   -0.40178255     1.7284766      0.04635096     0.067728106    0.040199313    0.031125461   -0.012466051   -0.0038329762  -0.014869576    13.352488      13.352488      13.352488      0              0              0              0.092413649  
      6400   1.0718121      0.094800089   -0.39245371     2.0115845      0.069321155    0.060202163    0.081548509    0.066212792   -0.025392013    0.014619817   -0.0022346419   13.239492      13.239492      13.239492      0              0              0              0.094800089  
      6500   1.1094054      0.097153094   -0.44994166     1.2852012      0.0070087401  -0.0047418723   0.029779306   -0.0040112137  -0.011218725   -0.028356582   -0.018602408    13.131732      13.131732      13.131732      0              0              0              0.097153094  
      6600   1.1169001      0.099528573   -0.51668563     1.7255478      0.052049824    0.10113659     0.023370023    0.031642855    0.0070372907   0.017749553    0.017363377    13.026417      13.026417      13.026417      0              0              0              0.099528573  
      6700   1.016956       0.10195457    -0.47557359     1.3563335      0.029112684    0.052327754    0.057870947   -0.022860649    0.014264881   -0.0049076192   0.00047468936  12.922266      12.922266      12.922266      0              0              0              0.10195457   
      6800   0.98010324     0.10438851    -0.52539537     1.1765428      0.022693505    0.006046087    0.043772553    0.018261876   -0.045048159    0.06342061    -0.024525797    12.821042      12.821042      12.821042      0              0              0              0.10438851   
      6900   0.97487457     0.10687804    -0.60886839     1.5728863      0.070612802    0.09310493     0.068146811    0.050586666    0.039001997   -0.026014279    0.010401565    12.720711      12.720711      12.720711      0              0              0              0.10687804   
      7000   0.92142488     0.10937742    -0.59792414     1.2475338      0.046756987    0.085748425    0.049502857    0.0050196803  -0.029886244   -0.013528147   -0.0020460304   12.62307       12.62307       12.62307       0              0              0              0.10937742   
      7100   0.88476782     0.11188931    -0.57384731     0.87131183     0.012678399   -0.0075187349   0.01678466     0.028769273   -0.022925335    0.015660069   -0.05392399     12.527893      12.527893      12.527893      0              0              0              0.11188931   
      7200   0.93463734     0.11447246    -0.64339987     0.91931492     0.017458982    0.0036518709   0.0033514842   0.045373592    0.035193985   -0.010389722   -0.0116695      12.432941      12.432941      12.432941      0              0              0              0.11447246   
      7300   0.90937422     0.11710847    -0.5635979      1.1899612      0.042192908    0.082895338    0.040827251    0.0028561356  -0.0070347753   0.034355975    0.071943403    12.338948      12.338948      12.338948      0              0              0              0.11710847   
      7400   0.9809567      0.11972868    -0.5934575      0.95695692     0.0093972364   0.042983901   -0.0042615072  -0.010530684   -0.023055192   -0.0038621808  -0.067267236    12.248272      12.248272      12.248272      0              0              0              0.11972868   
      7500   1.1161782      0.12233315    -0.71505626     1.5118604      0.062392202    0.033314153    0.10417525     0.049687206   -0.020381854    0.0052894573  -0.01578048     12.160726      12.160726      12.160726      0              0              0              0.12233315   
      7600   1.1206833      0.124956      -0.68834628     1.456183       0.053607202    0.0076139711   0.10510173     0.04810591     0.023736673    0.087594788   -0.032593702    12.075038      12.075038      12.075038      0              0              0              0.124956     
      7700   1.1026654      0.12759857    -0.6846112      1.2028982      0.028046312    0.054347841    0.055244873   -0.025453777    0.0054085713  -0.052201127    0.024466712    11.991098      11.991098      11.991098      0              0              0              0.12759857   
      7800   1.1249379      0.13025871    -0.80703908     1.4046968      0.063088557    0.094866731    0.10842468    -0.014025737    0.031839687   -0.015937691    0.052155112    11.908909      11.908909      11.908909      0              0              0              0.13025871   
      7900   1.0617194      0.13287986    -0.83565996     1.0331449      0.034329958   -0.021515431    0.043319059    0.081186245   -0.021548643    0.060458155   -0.0034640222   11.830084      11.830084      11.830084      0              0              0              0.13287986   
      8000   0.93461766     0.13555132    -0.76623055     1.3654974      0.090796108    0.072950312    0.1001044      0.099333612   -0.019446297   -0.019815768   -0.068478632    11.751852      11.751852      11.751852      0              0              0              0.13555132   
      8100   0.91525009     0.13827412    -0.83121139     0.67887944     0.018111406    0.072805247    0.012236644   -0.030707673    0.010609538    0.017770638    0.006663574    11.674203      11.674203      11.674203      0              0              0              0.13827412   
      8200   0.86010634     0.1410791     -0.79897705     0.24551953    -0.030679848   -0.00070959453 -0.014327856   -0.077002093   -0.082820877    0.013691165    0.019425079    11.596315      11.596315      11.596315      0              0              0              0.1410791    
      8300   0.90333122     0.14393734    -0.85333453     0.70057069     0.026914108   -0.027367941    0.030557521    0.077552744   -0.00422666    -0.023619164   -0.0026244911   11.519043      11.519043      11.519043      0              0              0              0.14393734   
      8400   0.92988391     0.14683913    -0.83881472     0.88337689     0.044631071   -0.0096446251   0.10021992     0.043317917   -0.050221606    0.0061813928  -0.020628027    11.442659      11.442659      11.442659      0              0              0              0.14683913   
      8500   0.9990163      0.14970967    -0.8421826      0.52379768    -0.017019479    0.030770598   -0.01465045    -0.067178584   -0.0280492      0.071000566   -0.011433597    11.369053      11.369053      11.369053      0              0              0              0.14970967   
      8600   1.0605961      0.15258854    -0.83831062     1.1415058      0.055053493    0.035127832   -0.0077628636   0.13779551    -0.014097074   -0.026716804    0.02186403     11.297099      11.297099      11.297099      0              0              0              0.15258854   
      8700   1.1132264      0.15542642    -0.86223135     0.83996593     0.005751751    0.0056075747   0.055900304   -0.044252626    0.0091513852  -0.030245609   -0.023473087    11.227919      11.227919      11.227919      0              0              0              0.15542642   
      8800   1.1323742      0.15838595    -0.89681765     0.98641025     0.027812478   -0.0017940603   0.047043387    0.038188108   -0.043398032   -0.0041799083   0.077098115    11.157546      11.157546      11.157546      0              0              0              0.15838595   
      8900   1.010579       0.16130454    -0.77641489     1.1737011      0.064789717    0.17024049    -0.01462919     0.038757854    0.05185418     0.04178624     0.037353079    11.089842      11.089842      11.089842      0              0              0              0.16130454   
      9000   1.0520173      0.16415308    -0.93215681     1.2131201      0.085828356    0.090659273    0.074607973    0.092217823    0.013987811    0.02628033     0.027965665    11.02532       11.02532       11.02532       0              0              0              0.16415308   
      9100   1.0355694      0.1670156     -1.0197198      0.50759059    -0.0027750301   0.011558385   -0.0095504057  -0.010333069   -0.048630944   -0.040191869   -0.0065465928   10.961969      10.961969      10.961969      0              0              0              0.1670156    
      9200   0.92521051     0.1700265     -0.95624939     0.96369517     0.083323477    0.13511883     0.065064793    0.049786811    0.046135961   -0.02018557     0.054662644    10.896876      10.896876      10.896876      0              0              0              0.1700265    
      9300   0.94952977     0.17301629    -1.0679959      0.0016106863  -0.054667892   -0.20259369     0.027084372    0.011505637    0.004040964    0.0095591193   0.0081542799   10.833744      10.833744      10.833744      0              0              0              0.17301629   
      9400   0.9713722      0.17612546    -1.1475218      0.88347352     0.093061859    0.010355137    0.13474999     0.13408044     0.013086819    0.021212928   -0.0066412955   10.769615      10.769615      10.769615      0              0              0              0.17612546   
      9500   0.94397774     0.17917129    -1.133045       0.22156841    -0.0088402035   0.061756855   -0.056655684   -0.031621781   -0.015529217   -0.025051827   -0.035162393    10.70824       10.70824       10.70824       0              0              0              0.17917129   
      9600   0.91439733     0.18232591    -1.0904856     -0.0099114352  -0.047100391   -0.093362823    0.014768793   -0.062707144   -0.050677337   -0.018038759    0.075600742    10.646122      10.646122      10.646122      0              0              0              0.18232591   
      9700   1.0416066      0.18554731    -1.2567967      0.61725807     0.053885797    0.035484614    0.14414286    -0.017970083    0.072035203    0.0062315841  -0.032086661    10.584151      10.584151      10.584151      0              0              0              0.18554731   
      9800   1.0589407      0.18863393    -1.2568305      0.84708008     0.089762593   -0.04258211     0.13803387     0.17383602     0.03229035    -0.064671107   -0.012726303    10.526103      10.526103      10.526103      0              0              0              0.18863393   
      9900   1.0504281      0.1916732     -1.2418871      0.14948708    -0.030735622   -0.029723942   -0.021253032   -0.041229893   -0.056961045   -0.0079937533  -0.044835846    10.470171      10.470171      10.470171      0              0              0              0.1916732    
     10000   1.0330611      0.19487231    -1.2359378      0.34151597     0.0063085499  -0.013143128    0.0034623927   0.028606385    0.0081578149   0.019535924   -0.052048485    10.41256       10.41256       10.41256       0              0              0              0.19487231   
     10100   0.98235971     0.19812803    -1.1841861      0.94514748     0.11944629     0.2340905      0.01491575     0.10933262    -0.028395068   -0.054383234    0.13688433     10.35521       10.35521       10.35521       0              0              0              0.19812803   
     10200   1.0017517      0.20121065    -1.2401668      0.43938236     0.033736586   -0.04873487     0.13151027     0.018434361    0.07981883     0.037813693   -0.0140407      10.302056      10.302056      10.302056      0              0              0              0.20121065   
     10300   0.98099914     0.20439703    -1.246321       0.3595679      0.026338913    0.057881293   -0.0041769397   0.025312384    0.013116106   -0.04549533     0.017819202    10.248242      10.248242      10.248242      0              0              0              0.20439703   
     10400   1.0045456      0.20752421    -1.3115772      0.30486573     0.022102965    0.097249591   -0.061253413    0.030312718    0.012005729   -0.034545398    0.035533721    10.196504      10.196504      10.196504      0              0              0              0.20752421   
     10500   0.9463924      0.21075992    -1.2578713      0.7903905      0.12181371     0.12580467     0.1375273      0.10210915     0.0072875019   0.022887478   -0.04617797     10.144054      10.144054      10.144054      0              0              0              0.21075992   
     10600   0.9264392      0.21393949    -1.2438982     -0.21870355    -0.069533425    0.05551408    -0.10321942    -0.16089493     0.062749341    0.0069213929  -0.096603257    10.093549      10.093549      10.093549      0              0              0              0.21393949   
     10700   0.97879542     0.21734033    -1.3162072      0.40285201     0.051017094    0.15310588     0.05936414    -0.059418743   -0.009568218    0.046187634    0.068016836    10.040626      10.040626      10.040626      0              0              0              0.21734033   
     10800   0.92373746     0.22083421    -1.2100218      0.86842866     0.14048514     0.20035095     0.1036412      0.11746328    -0.034660319   -0.00030708265 -0.0096686507   9.9873923      9.9873923      9.9873923      0              0              0              0.22083421   
     10900   1.0075256      0.22415387    -1.2910568     -0.11546877    -0.066867924   -0.098351762   -0.068782574   -0.033469436    0.095808917    0.090397228   -0.087371749    9.9378433      9.9378433      9.9378433      0              0              0              0.22415387   
     11000   1.0400297      0.22759919    -1.308952       0.34130455     0.020279548    0.055965675    0.083261123   -0.078388154   -0.020223485   -0.018750336   -0.013428751    9.887443       9.887443       9.887443       0              0              0              0.22759919   
     11100   1.0508458      0.23114182    -1.3284713      0.85481269     0.12920757     0.036702785    0.076319889    0.27460002    -0.054334435   -0.079687503    0.083927659    9.8366689      9.8366689      9.8366689      0              0              0              0.23114182   
     11200   1.0931906      0.23447716    -1.433527      -0.30803685    -0.10788012    -0.062715194   -0.14114839    -0.11977678     0.11055732    -0.057899054   -0.014159675    9.7898051      9.7898051      9.7898051      0              0              0              0.23447716   
     11300   1.0540944      0.23796491    -1.464255       1.0556036      0.20478455     0.15180423     0.30679312     0.15575632    -0.072407066    0.13523049    -0.016037598    9.7417412      9.7417412      9.7417412      0              0              0              0.23796491   
     11400   1.0503484      0.24119605    -1.5644621      0.41307063     0.089875737   -0.054446885    0.18897035     0.13510374     0.10072519     0.055228432    0.059472464    9.6980442      9.6980442      9.6980442      0              0              0              0.24119605   
     11500   0.98006803     0.24451887    -1.5682702      0.3834343      0.10868929     0.021287039    0.22542621     0.079354611   -0.01471853     0.03197283    -0.10770977     9.6539142      9.6539142      9.6539142      0              0              0              0.24451887   
     11600   0.98163067     0.24782543    -1.6555334     -0.54485036    -0.079845022    0.0097590692  -0.1499032     -0.099390935   -0.03781375     0.095407506   -0.030882568    9.6107866      9.6107866      9.6107866      0              0              0              0.24782543   
     11700   0.92987109     0.25148055    -1.6397362     -0.35865502    -0.024405375   -0.078218242    0.056172457   -0.051170339    0.12219592     0.059647068   -0.006775854    9.5639969      9.5639969      9.5639969      0              0              0              0.25148055   
     11800   0.93135452     0.25516913    -1.6654503     -0.80921605    -0.12382949    -0.1260557     -0.15736759    -0.088065193    0.018120952   -0.033495451    0.033198346    9.5176891      9.5176891      9.5176891      0              0              0              0.25516913   
     11900   0.90270775     0.25894958    -1.6068551     -0.35522511    -0.022519505    0.020937197   -0.11969494     0.031199225    0.058870063    0.078204566    0.09734178     9.4711451      9.4711451      9.4711451      0              0              0              0.25894958   
     12000   0.93005384     0.26276932    -1.5955525     -0.036857466    0.040750664    0.081912933    0.11517545    -0.074836392    0.078002618    0.086600489   -0.0059267212   9.4250286      9.4250286      9.4250286      0              0              0              0.26276932   
     12100   1.0330809      0.26650704    -1.6832208     -0.10587959     0.0085931386   0.061222293    0.044788713   -0.080231591   -0.014423751   -0.11586684     0.0029548171   9.3807594      9.3807594      9.3807594      0              0              0              0.26650704   
     12200   1.0003659      0.27010288    -1.5677059     -0.49741972    -0.10380789    -0.056972425   -0.24569534    -0.0087559155   0.10389186    -0.10936654     0.022886453    9.3389451      9.3389451      9.3389451      0              0              0              0.27010288   
     12300   1.0660183      0.27403869    -1.623198       0.4419617      0.11811748     0.040890453    0.18693759     0.1265244     -0.060245171    0.15449091    -0.025507123    9.29402        9.29402        9.29402        0              0              0              0.27403869   
     12400   1.0831447      0.27772042    -1.6325165     -0.27387769    -0.065126633    0.061820375   -0.1272345     -0.12996578     0.018422773   -0.057766581    0.034656712    9.2527669      9.2527669      9.2527669      0              0              0              0.27772042   
     12500   1.0921734      0.28146758    -1.6756515     -0.056324096   -0.002748504   -0.2040382      0.090392331    0.10540036    -0.014452004    0.18035994     0.21380722     9.2115229      9.2115229      9.2115229      0              0              0              0.28146758   
     12600   1.1372476      0.28515964    -1.8187771     -0.18377005    -0.016159488    0.064247309   -0.13736721     0.024641434    0.024790038   -0.071268729   -0.032415744    9.1715951      9.1715951      9.1715951      0              0              0              0.28515964   
     12700   1.0050553      0.28883566    -1.7297508      0.55743687     0.20668623     0.25357604     0.1145528      0.25192985    -0.0097392886   0.044640402   -0.10359839     9.1325198      9.1325198      9.1325198      0              0              0              0.28883566   
     12800   1.0126782      0.29229163    -1.8355682     -0.59029094    -0.070719952   -0.098890002   -0.081265935   -0.032003919    0.037224153    0.041917574   -0.012704501    9.0963837      9.0963837      9.0963837      0              0              0              0.29229163   
     12900   0.96047575     0.29606119    -1.8381171     -0.31147975     0.025064879   -0.052421662    0.041453474    0.086162827    0.11297974    -0.12202988    -0.081781018    9.0576124      9.0576124      9.0576124      0              0              0              0.29606119   
     13000   0.96870676     0.30001077    -1.9096058     -0.48301927    -0.0052388291  -0.056822813    0.038082672    0.0030236536  -0.027492143    0.045076753    0.077453189    9.0176895      9.0176895      9.0176895      0              0              0              0.30001077   
     13100   0.94845803     0.30395963    -1.9084609     -0.81606427    -0.089302508   -0.078735508   -0.091089048   -0.098082966   -0.025383393    0.010680071   -0.023143103    8.9784683      8.9784683      8.9784683      0              0              0              0.30395963   
     13200   0.94586574     0.30797913    -1.9078095     -0.33831859     0.04417717    -0.059256444    0.044844289    0.14694367    -0.069939815    0.02187451     0.060854988    8.9392372      8.9392372      8.9392372      0              0              0              0.30797913   
     13300   1.0003582      0.31185804    -1.9668865     -0.65943369    -0.052613794   -0.099054107    0.057554556   -0.11634183    -0.074241624   -0.091387025   -0.023068856    8.9020202      8.9020202      8.9020202      0              0              0              0.31185804   
     13400   1.0178657      0.31574982    -1.9539736     -0.42833837     0.0018573759  -0.1108071      0.15102059    -0.034641362   -0.057603018   -0.024677993    0.17649889     8.865295       8.865295       8.865295       0              0              0              0.31574982   
     13500   1.0130926      0.31972902    -1.905344      -0.95575913    -0.16348497    -0.23224185    -0.13392853    -0.12428454    -0.020300975    0.049116618   -0.010189682    8.8283635      8.8283635      8.8283635      0              0              0              0.31972902   
     13600   1.0441293      0.32391785    -1.9030735     -0.80932722    -0.13681604    -0.12162143    -0.17017644    -0.11865026    -0.026102615   -0.2017124     -0.056869724    8.7901429      8.7901429      8.7901429      0              0              0              0.32391785   
     13700   1.1011572      0.3281506     -1.9497669     -0.35534374    -0.014633729   -0.033904966    0.020224067   -0.030220288    0.055854646   -0.18354933     0.060880851    8.7521851      8.7521851      8.7521851      0              0              0              0.3281506    
     13800   1.0294052      0.33212076    -1.8367898      0.3483416      0.19587399     0.31369115     0.060330746    0.21360009     0.12982776     0.12966742     0.0059143435   8.7171707      8.7171707      8.7171707      0              0              0              0.33212076   
     13900   1.0432974      0.33569653    -1.8840801     -0.10165848     0.068756843    0.18868045    -0.089449493    0.10703958     0.021950556    0.054941926   -0.12915601     8.686109       8.686109       8.686109       0              0              0              0.33569653   
     14000   1.0725615      0.33935931    -1.9963495     -0.3455374      0.015429782   -0.04457009     0.13872178    -0.047862341    0.041885205   -0.09031244     0.075881223    8.6547456      8.6547456      8.6547456      0              0              0              0.33935931   
     14100   0.9793771      0.34336038    -1.9441941     -0.94109012    -0.14315517    -0.17749106    -0.094732907   -0.15724154    -0.018667366    0.15479721    -0.074265002    8.6209971      8.6209971      8.6209971      0              0              0              0.34336038   
     14200   0.99404085     0.34763827    -2.030942      -1.28081       -0.23180326    -0.17916644    -0.34502688    -0.17121647    -0.13278145    -0.0061651505   0.049767373    8.585489       8.585489       8.585489       0              0              0              0.34763827   
     14300   1.0005445      0.35228333    -2.0818113     -0.02225986     0.18134227     0.15460341     0.16839261     0.22103079    -0.04588502     0.021298619    0.018168701    8.547587       8.547587       8.547587       0              0              0              0.35228333   
     14400   0.98351104     0.35664611    -2.0780886     -1.0580844     -0.14521529    -0.10640518    -0.041465275   -0.28777543     0.14269869    -0.053358278   -0.019996985    8.5125902      8.5125902      8.5125902      0              0              0              0.35664611   
     14500   1.0388033      0.36096845    -2.1753145     -0.81699769    -0.063037268   -0.11731568    -0.027933382   -0.043862743   -0.089603021    0.064712549    0.088567196    8.4784763      8.4784763      8.4784763      0              0              0              0.36096845   
     14600   1.0217662      0.3650739     -2.1739496     -0.18668365     0.15342396     0.1495138     -0.040019447    0.35077754     0.0097963769  -0.010356786    0.10260261     8.4465748      8.4465748      8.4465748      0              0              0              0.3650739    
     14700   0.99506462     0.36885762    -2.1580364     -0.48244744     0.06386433     0.089951583    0.081832089    0.019809317   -0.052771589   -0.13874177    -0.071946493    8.417594       8.417594       8.417594       0              0              0              0.36885762   
     14800   0.97322003     0.37286623    -2.1586208     -1.0640736     -0.1213455      0.084270848   -0.15950895    -0.28879841     0.033037224    0.20795522     0.037006761    8.38732        8.38732        8.38732        0              0              0              0.37286623   
     14900   0.9374939      0.37721636    -2.1493702     -0.23885882     0.17533762     0.20398355     0.21292955     0.10909977     0.13033292     0.028011904    0.018531209    8.3549538      8.3549538      8.3549538      0              0              0              0.37721636   
     15000   0.9617468      0.38136054    -2.2558598     -1.3013618     -0.16672705    -0.1333414     -0.20063971    -0.16620003    -0.048002475    0.19686145     0.057264814    8.3245796      8.3245796      8.3245796      0              0              0              0.38136054   
     15100   0.92657815     0.38596175    -2.3073111     -1.455169      -0.18623558    -0.3633458     -0.07748532    -0.11787563     0.16803799     0.18830938    -0.00624655     8.291367       8.291367       8.291367       0              0              0              0.38596175   
     15200   0.93934546     0.39064513    -2.4014061     -1.3828126     -0.13615036    -0.1333271     -0.082934618   -0.19218936    -0.1611473     -0.027315422    0.0010997522   8.2580991      8.2580991      8.2580991      0              0              0              0.39064513   
     15300   0.94485521     0.39540717    -2.4440193     -1.0858566     -0.01870409    -0.057352915    0.12135503    -0.12011438    -0.071408556   -0.084121668   -0.02917477     8.2248133      8.2248133      8.2248133      0              0              0              0.39540717   
     15400   0.96049588     0.39996151    -2.479268      -1.1168596     -0.02586356    -0.16514856     0.006846499    0.080711376    0.077111795   -0.097237547    0.060241632    8.1934755      8.1934755      8.1934755      0              0              0              0.39996151   
     15500   1.0005007      0.40420857    -2.5291103     -0.83351962     0.074353534    0.14842466    -0.20041145     0.27504739    -0.19731657    -0.05892607     0.16892469     8.1646778      8.1646778      8.1646778      0              0              0              0.40420857   
     15600   0.99932532     0.40836243    -2.520741      -0.6396666      0.14462764     0.15889134     0.13791574     0.13707585     0.011980892   -0.14419194    -0.20339955     8.1368998      8.1368998      8.1368998      0              0              0              0.40836243   
     15700   1.0286785      0.41224985    -2.5582311     -0.88571086     0.051425372    0.10581202     0.12457063    -0.076106538   -0.0061194772  -0.017292481    0.31657084     8.1112426      8.1112426      8.1112426      0              0              0              0.41224985   
     15800   1.0647331      0.41640531    -2.6358891     -1.1690724     -0.046295763   -0.085358425   -0.018565087   -0.034963776    0.16303454    -0.25514561     0.0074535398   8.0841707      8.0841707      8.0841707      0              0              0              0.41640531   
     15900   1.0115929      0.42066663    -2.6287946     -1.0638423      0.021090684   -0.1584288     -0.052315344    0.2740162      0.20252928    -0.040479433    0.029151041    8.0567807      8.0567807      8.0567807      0              0              0              0.42066663   
     16000   1.0091768      0.42501732    -2.7250078     -1.1588007      0.023186881    0.069185294   -0.042508667    0.042884017   -0.20707961     0.16149457     0.048898432    8.0291952      8.0291952      8.0291952      0              0              0              0.42501732   
     16100   0.9417056      0.42958188    -2.697892      -1.3286837     -0.01417124    -0.18714975     0.11461145     0.030024578   -0.17544486    -0.011809715   -0.21002686     8.0006556      8.0006556      8.0006556      0              0              0              0.42958188   
     16200   0.97271791     0.4340432     -2.7717982     -1.8233536     -0.19860905    -0.18035841    -0.31877769    -0.096691052    0.07864007     0.036755044    0.065583185    7.9731495      7.9731495      7.9731495      0              0              0              0.4340432    
     16300   0.92116288     0.43883523    -2.7052951     -1.1639581      0.066424244    0.057781772    0.16018395    -0.018692989   -0.054749378   -0.13777725    -0.15368556     7.9440213      7.9440213      7.9440213      0              0              0              0.43883523   
     16400   0.97613488     0.44344309    -2.7665        -1.6788401     -0.14884424    -0.35652868    -0.11570082     0.02569679    -0.1480759     -0.1015327      0.0096907463   7.9164097      7.9164097      7.9164097      0              0              0              0.44344309   
     16500   0.99194733     0.4481928     -2.7503426     -1.3366329     -0.027206029   -0.026861517   -0.17336557     0.118609       0.022746581    0.08036312     0.0041140341   7.8883457      7.8883457      7.8883457      0              0              0              0.4481928    
     16600   1.0015384      0.45293567    -2.6961808     -1.2040121     -0.0010818309  -0.028340035    0.33682466    -0.31173012     0.0020856966  -0.1687812      0.095775672    7.860715       7.860715       7.860715       0              0              0              0.45293567   
     16700   1.0844259      0.45779846    -2.7593304     -1.5845257     -0.18465966    -0.28514374    -0.08150854    -0.18732669    -0.046112328   -0.10564942     0.10034034     7.8327834      7.8327834      7.8327834      0              0              0              0.45779846   
     16800   1.0096609      0.46272234    -2.6129418     -0.89229276     0.089907003    0.19900766    -0.19465579     0.26536914    -0.041015498   -0.26414717    -0.056958619    7.8049011      7.8049011      7.8049011      0              0              0              0.46272234   
     16900   1.0491591      0.46717528    -2.6585394     -0.27436683     0.34753708     0.32646722     0.27458824     0.44155578     0.18696792    -0.13818883     0.052556201    7.7800241      7.7800241      7.7800241      0              0              0              0.46717528   
     17000   1.0454945      0.47121798    -2.6709495     -0.78496833     0.1394722      0.1433194      0.30103757    -0.025940378   -0.13448447    -0.16020005    -0.038233116    7.7577112      7.7577112      7.7577112      0              0              0              0.47121798   
     17100   0.99885567     0.47540882    -2.6870639     -1.481185      -0.12313655    -0.33205994    -0.10875279     0.071403077   -0.023048059    0.0081362565   0.032855333    7.7348486      7.7348486      7.7348486      0              0              0              0.47540882   
     17200   0.90826893     0.4804194     -2.7043242     -1.5471992     -0.086679152   -0.03907689    -0.15640598    -0.064554591    0.024363977    0.017876248   -0.055485487    7.7078641      7.7078641      7.7078641      0              0              0              0.4804194    
     17300   0.95304317     0.48596553    -2.8396983     -2.6094228     -0.52667243    -0.59981861    -0.61929482    -0.36090388    -0.031543027    0.12918083     0.12702265     7.6784296      7.6784296      7.6784296      0              0              0              0.48596553   
     17400   0.9223512      0.49183315    -2.8061695     -1.4048879      0.011031546   -0.044534412    0.11428473    -0.036655684   -0.06485837    -0.25121545     0.14602462     7.6477725      7.6477725      7.6477725      0              0              0              0.49183315   
     17500   0.99013825     0.49691566    -2.8994807     -0.94318668     0.21616403     0.59432702     0.00021175272  0.053953313   -0.10163994     0.4790624      0.10329072     7.621609       7.621609       7.621609       0              0              0              0.49691566   
     17600   1.0080732      0.50104449    -2.9039998     -1.1554919      0.11112199    -0.43989427     0.070485237    0.702775       0.11377625     0.10244847    -0.021570039    7.6006161      7.6006161      7.6006161      0              0              0              0.50104449   
     17700   1.0559246      0.50510727    -2.9616587     -0.82526105     0.25734308     0.27392518     0.27903107     0.21907297    -0.01504046     0.034575604    0.031262785    7.5801829      7.5801829      7.5801829      0              0              0              0.50510727   
     17800   1.0045471      0.50937395    -2.8999444     -1.2666779      0.062041675   -0.036096082    0.2362527     -0.014031592    0.15128291     0.068113739   -0.12784511     7.5589589      7.5589589      7.5589589      0              0              0              0.50937395   
     17900   0.97891433     0.51384562    -2.8960765     -2.301858      -0.40491555    -0.21913338    -0.56158494    -0.43402833    -0.15659346    -0.24719426     0.2244295      7.536968       7.536968       7.536968       0              0              0              0.51384562   
     18000   0.92652583     0.51911803    -2.8639472     -0.99306422     0.23032001     0.34678428     0.21309172     0.13108402    -0.013285783   -0.11749963     0.20830246     7.5113648      7.5113648      7.5113648      0              0              0              0.51911803   
     18100   0.92557047     0.52420724    -2.8990001     -1.6736307     -0.07436333    -0.14481716     0.050341851   -0.12861468    -0.036579667    0.042811425    0.024804439    7.486978       7.486978       7.486978       0              0              0              0.52420724   
     18200   0.91830966     0.52962352    -2.9017986     -2.5728093     -0.50149947    -0.4626947     -0.63650774    -0.40529598    -0.17949024     0.29059073     0.11656249     7.4613682      7.4613682      7.4613682      0              0              0              0.52962352   
     18300   0.95005488     0.53569273    -2.93929       -1.1103949      0.20012416     0.063403523    0.17616271     0.36080626     0.035113312    0.054413453    0.10868963     7.4330829      7.4330829      7.4330829      0              0              0              0.53569273   
     18400   1.0451231      0.54096875    -3.0471112     -1.6108407     -0.06077323    -0.1226919     -0.21606446     0.15643666     0.14228593     0.044921933    0.055318955    7.4088392      7.4088392      7.4088392      0              0              0              0.54096875   
     18500   1.0374624      0.54613124    -2.9792573     -1.74963       -0.15827144    -0.21437554    -0.20841092    -0.052027874   -0.061485317    0.21688995     0.087588767    7.3854204      7.3854204      7.3854204      0              0              0              0.54613124   
     18600   1.043179       0.55154515    -2.9371552     -1.4823078     -0.051192043   -0.19246889    -0.039495055    0.078387812    0.019554152   -0.15436551    -0.023243501    7.3611761      7.3611761      7.3611761      0              0              0              0.55154515   
     18700   1.1178699      0.55661926    -3.015346      -1.2210995      0.063669937    0.23555304    -0.2834125      0.23886927    -0.1516212      0.20951229     0.026147742    7.3387397      7.3387397      7.3387397      0              0              0              0.55661926   
     18800   1.0758632      0.56130667    -2.9596579     -1.0481434      0.15603748     0.34549615     0.071921849    0.050694427    0.068836162   -0.2372237     -0.11768012     7.3182542      7.3182542      7.3182542      0              0              0              0.56130667   
     18900   1.0902183      0.56566073    -3.0438585     -0.83724141     0.29798303     0.40825896     0.26312264     0.22256748    -0.34057206    -0.089462143    0.15046655     7.2994289      7.2994289      7.2994289      0              0              0              0.56566073   
     19000   1.0891397      0.56956114    -3.1598862     -1.1413869      0.20346707     0.32050314    -0.079505812    0.36940387     0.18788677    -0.033316742    0.039968928    7.2827283      7.2827283      7.2827283      0              0              0              0.56956114   
     19100   1.0336184      0.57426234    -3.1818993     -1.8270997     -0.09808181    -0.00087177522 -0.20572584    -0.087647815    0.036504501   -0.0021653942   0.2184274      7.2628005      7.2628005      7.2628005      0              0              0              0.57426234   
     19200   1.0272363      0.57924125    -3.2237816     -2.2452672     -0.29206176     0.082588851   -0.34168658    -0.61708755    -0.19426364     0.17151479     0.067843261    7.2419313      7.2419313      7.2419313      0              0              0              0.57924125   
     19300   0.9906506      0.58413608    -3.2003105     -1.3910537      0.17561829     0.20981567    -0.041841667    0.35888087     0.012760549   -0.059100401   -0.15128033     7.2216463      7.2216463      7.2216463      0              0              0              0.58413608   
     19400   0.97442287     0.58879056    -3.2029365     -1.5866955      0.086667215   -0.17370067     0.092608711    0.3410936      0.031884474   -0.072027777   -0.10871933     7.2025666      7.2025666      7.2025666      0              0              0              0.58879056   
     19500   1.01123        0.59355608    -3.2745282     -2.3918225     -0.3380869     -0.59343081     0.1144865     -0.53531638     0.35048996    -0.10518681    -0.13350454     7.1832388      7.1832388      7.1832388      0              0              0              0.59355608   
     19600   0.96589749     0.59894344    -3.2257886     -1.3751934      0.22269437    -0.0087738154   0.30845401     0.3684029     -0.29935397     0.029117732    0.11508714     7.1616368      7.1616368      7.1616368      0              0              0              0.59894344   
     19700   1.0177238      0.60431959    -3.3161922     -1.7737063      0.012928593   -0.22395622    -0.35396162     0.61670362    -0.045842929    0.28436991     0.040409062    7.1403363      7.1403363      7.1403363      0              0              0              0.60431959   
     19800   0.96141975     0.60956051    -3.2356595     -2.3014599     -0.27747157    -0.34453327    -0.1263656     -0.36151584     0.286309      -0.26316135     0.2547163      7.1198135      7.1198135      7.1198135      0              0              0              0.60956051   
     19900   0.93047977     0.61503797    -3.1872599     -1.290203       0.28421234     0.35772928     0.012753163    0.48215458     0.30396873     0.052866247    0.073948042    7.0986144      7.0986144      7.0986144      0              0              0              0.61503797   
     20000   1.0281453      0.62038865    -3.3064549     -2.0706749     -0.16847881    -0.29993191    -0.071454875   -0.13404966    -0.025860664   -0.12084102     0.024511885    7.0781476      7.0781476      7.0781476      0              0              0              0.62038865   
     20100   1.0386671      0.62579068    -3.2869172     -2.250234      -0.29214609    -0.46542538     0.093098879   -0.50411176     0.61916729     0.099609025   -0.0084654682   7.0577217      7.0577217      7.0577217      0              0              0              0.62579068   
     20200   1.0371499      0.63157673    -3.256192      -1.3586899      0.20070125    -0.020555663    0.52299358     0.099665843   -0.14286667     0.129199      -0.085660396    7.036103       7.036103       7.036103       0              0              0              0.63157673   
     20300   1.0100435      0.63713425    -3.1976842     -1.9307938     -0.13935837     0.40642975    -0.28937272    -0.53513213    -0.34963606     0.17718165    -0.12551023     7.0155853      7.0155853      7.0155853      0              0              0              0.63713425   
     20400   1.0484673      0.64263227    -3.2546939     -1.8892157     -0.11646786     0.16589648    -0.060816145   -0.45448392     0.17275918     0.14622458     0.34160114     6.9955208      6.9955208      6.9955208      0              0              0              0.64263227   
     20500   1.0399674      0.64826301    -3.2838857     -1.6840793      0.028084503   -0.053446061    0.030691687    0.10700788    -0.20919297    -0.25203947     0.028567441    6.9752077      6.9752077      6.9752077      0              0              0              0.64826301   
     20600   1.0304956      0.65368571    -3.3482526     -1.7866357      0.014025924   -0.18979003    -0.17152063     0.40338843    -0.061905055   -0.015525084   -0.15425285     6.9558664      6.9558664      6.9558664      0              0              0              0.65368571   
     20700   1.0036238      0.65894845    -3.4023239     -1.7904836      0.068250147    0.19879502     0.27338838    -0.26743297    -0.12796287     0.22464525     0.042269705    6.937299       6.937299       6.937299       0              0              0              0.65894845   
     20800   0.98416552     0.66394473    -3.4314999     -1.7854321      0.10695592     0.37505104    -0.2642577      0.21007442     0.036619506   -0.44772868    -0.16533416     6.9198538      6.9198538      6.9198538      0              0              0              0.66394473   
     20900   0.99240503     0.66909419    -3.4795799     -1.9451895      0.032375545   -0.20295674     0.17398084     0.12610254    -0.043396019   -0.12468037    -0.71678743     6.9020559      6.9020559      6.9020559      0              0              0              0.66909419   
     21000   1.0260352      0.67434592    -3.5612751     -2.0399674     -0.0061610033   0.063971331   -0.25414687     0.17169253     0.048092746    0.046258447   -0.46692698     6.8840917      6.8840917      6.8840917      0              0              0              0.67434592   
     21100   1.0430183      0.67965411    -3.6176473     -2.184224      -0.076171652   -0.43348572     0.49649319    -0.29152242    -0.03814348    -0.19974249    -0.045778428    6.866123       6.866123       6.866123       0              0              0              0.67965411   
     21200   0.99758157     0.684479      -3.5828539     -1.9578101      0.084721864    0.27451524    -0.53631809     0.51596844    -0.45785797     0.097181017    0.0091202338   6.8499518      6.8499518      6.8499518      0              0              0              0.684479     
     21300   0.9944692      0.68891472    -3.6057207     -1.5415412      0.36320475     0.21200935     0.1462391      0.73136579     0.5331502      0.059427913    0.43973987     6.8352186      6.8352186      6.8352186      0              0              0              0.68891472   
     21400   1.0014441      0.6933852     -3.6403991     -2.1002922      0.02865042    -0.20532944     0.069835475    0.22144523    -0.11622298     0.12181253     0.16156387     6.8204972      6.8204972      6.8204972      0              0              0              0.6933852    
     21500   0.98180931     0.69859703    -3.6384782     -2.0007138      0.10949812     0.25548973     0.40751681    -0.33451218     0.13180361    -0.19937559    -0.3638038      6.8034936      6.8034936      6.8034936      0              0              0              0.69859703   
     21600   0.99981657     0.7036203     -3.7077402     -2.4172606     -0.12904821    -0.50981611     0.10556319     0.017108277    0.12007297     0.36846238    -0.1134551      6.7872645      6.7872645      6.7872645      0              0              0              0.7036203    
     21700   0.93479334     0.70908382    -3.7101357     -2.5267778     -0.1365445      0.1748504     -0.12967075    -0.45481314    -0.1922554     -0.18412356    -0.24481107     6.7697875      6.7697875      6.7697875      0              0              0              0.70908382   
     21800   0.89602477     0.71524193    -3.7524924     -3.077955      -0.43095244    -0.48538091    -0.55448759    -0.25298882     0.08553044     0.17203868    -0.11493284     6.7503026      6.7503026      6.7503026      0              0              0              0.71524193   
     21900   0.93128387     0.72222867    -3.8521097     -3.3054977     -0.55370591    -1.3324896     -0.22491023    -0.10371794     0.33182966    -0.09174365     0.54842993     6.7284648      6.7284648      6.7284648      0              0              0              0.72222867   
     22000   0.93174381     0.72935033    -3.8585193     -2.3266819      0.093628574    0.15288766     0.22474303    -0.096744963   -0.3245566      0.34351307    -0.18022664     6.7064934      6.7064934      6.7064934      0              0              0              0.72935033   
     22100   0.96349959     0.73543875    -3.8736906     -2.3524402      0.055644168    0.045148571    0.024999487    0.096784445   -0.058554079   -0.039393795   -0.14376424     6.6879352      6.6879352      6.6879352      0              0              0              0.73543875   
     22200   1.0286224      0.74119626    -3.914585      -3.205465      -0.55663768     0.031888669   -0.52178159    -1.1800201     -0.36654831    -0.14844535     0.11548916     6.6705732      6.6705732      6.6705732      0              0              0              0.74119626   
     22300   1.1467452      0.74775496    -4.0444446     -2.3933974     -0.041106155    0.2384075     -0.19104783    -0.17067813    -0.37321071    -0.015417845    0.20035582     6.6510129      6.6510129      6.6510129      0              0              0              0.74775496   
     22400   1.0666453      0.75296404    -3.9231999     -1.7896876      0.37069391     0.65811937     0.20579463     0.24816772     0.22495481    -0.031252901   -0.0037699787   6.63564        6.63564        6.63564        0              0              0              0.75296404   
     22500   1.072007       0.75691273    -3.9670946     -2.0927063      0.18882754    -0.18529212     0.24544475     0.50632998     0.1346346     -0.12650798    -0.54045283     6.6240808      6.6240808      6.6240808      0              0              0              0.75691273   
     22600   1.0564666      0.7607508     -4.0139501     -3.0455534     -0.42075023    -0.34177901    -0.14014291    -0.78032876    -0.086735526    0.30977344    -0.12849964     6.6129223      6.6129223      6.6129223      0              0              0              0.7607508    
     22700   0.95460796     0.76552817    -3.9470966     -1.7736554      0.5210385      0.58833554     0.36004159     0.61473839    -0.17692266     0.24308891    -0.21177432     6.5991374      6.5991374      6.5991374      0              0              0              0.76552817   
     22800   0.91112762     0.76964602    -3.9507024     -1.9912459      0.41952605     0.88884079    -0.30141824     0.67115561    -0.36711754    -0.0027150806  -0.23977254     6.5873472      6.5873472      6.5873472      0              0              0              0.76964602   
     22900   1.0038918      0.7736926     -4.1171068     -2.5934636      0.017819367    0.26029314    -0.31049044     0.1036554     -0.17000229     0.074385732    0.20144596     6.5758427      6.5758427      6.5758427      0              0              0              0.7736926    
     23000   0.94951617     0.77817467    -4.0490067     -2.679001      -0.033353405    0.3634395     -0.22604148    -0.23745824    -0.024466125   -0.095118895    0.075140084    6.5631933      6.5631933      6.5631933      0              0              0              0.77817467   
     23100   0.95716304     0.7831949     -4.060697      -1.7615754      0.61983164     0.843246       0.98311496     0.033133959    0.18940569    -0.15045018    -0.50533617     6.54914        6.54914        6.54914        0              0              0              0.7831949    
     23200   0.99936226     0.78687227    -4.1093193     -2.2389139      0.27101116    -0.014489359    0.51088949     0.31663335    -0.50707445     0.035028573    0.037716885    6.5389218      6.5389218      6.5389218      0              0              0              0.78687227   
     23300   1.0149628      0.79022602    -4.1147214     -1.3809591      0.87566402     0.56135344     0.8782572      1.1873814      0.12473286     0.38180378    -0.019805318    6.5296583      6.5296583      6.5296583      0              0              0              0.79022602   
     23400   1.0511051      0.79241186    -4.150215      -1.4320229      0.82801111     0.99142227     0.61705559     0.87555548    -0.1994303     -0.41974251     0.36402297     6.5236488      6.5236488      6.5236488      0              0              0              0.79241186   
     23500   1.0747659      0.79465883    -4.1956878     -1.9178185      0.48675114     0.1498782      0.28651943     1.0238558      0.38237671    -0.070373319   -0.32956579     6.5174942      6.5174942      6.5174942      0              0              0              0.79465883   
     23600   1.036175       0.79680216    -4.1621689     -1.6335676      0.71140681     0.80072833     0.75951848     0.57397362    -0.10086173    -0.062588694    0.11301504     6.5116451      6.5116451      6.5116451      0              0              0              0.79680216   
     23700   0.98364079     0.79838084    -4.1346053     -2.0310904      0.46119635     1.159618       0.11204706     0.11192396    -0.11390301    -0.19115885     0.19748982     6.5073504      6.5073504      6.5073504      0              0              0              0.79838084   
     23800   0.89044331     0.80063452    -4.0616486     -1.5918983      0.83030429     0.73941837     0.58021712     1.1712774     -0.044043341    0.19785525    -0.46273472     6.5012389      6.5012389      6.5012389      0              0              0              0.80063452   
     23900   0.88623984     0.80325051    -4.1209363     -1.8820871      0.66898808     0.68134181     0.78456679     0.54105563     0.19936878    -0.17607052    -0.26151842     6.4941735      6.4941735      6.4941735      0              0              0              0.80325051   
     24000   0.98610814     0.80609057    -4.321658      -2.5029905      0.25421245     0.046015346    0.23319373     0.48342827    -0.05267149    -0.30044237    -0.29619112     6.4865377      6.4865377      6.4865377      0              0              0              0.80609057   
     24100   0.97700241     0.80916926    -4.3400512     -2.5085847      0.27459554     0.049873951    0.32608762     0.44782507     0.015287058    0.17500754    -0.43951329     6.4783007      6.4783007      6.4783007      0              0              0              0.80916926   
     24200   0.95098557     0.81257487    -4.3115533     -2.1101832      0.57768466     0.61599965     0.81929102     0.2977633      0.18205536    -0.040407952   -0.24703372     6.4692375      6.4692375      6.4692375      0              0              0              0.81257487   
     24300   0.92404236     0.81524572    -4.2516911     -1.7377473      0.84104496     0.6211543      1.0471959      0.85478469    -0.17087593     0.0386484     -0.45170876     6.4621651      6.4621651      6.4621651      0              0              0              0.81524572   
     24400   1.023705       0.81746696    -4.3178301     -2.1727505      0.45867328     0.30195776    -0.027515036    1.1015771      0.231941      -0.13839191     0.068761982    6.4563068      6.4563068      6.4563068      0              0              0              0.81746696   
     24500   1.0501802      0.82000709    -4.236273      -1.1507846      1.1316802      1.166139       0.93888102     1.2900206      0.37887456    -0.053597676   -0.2618955      6.4496333      6.4496333      6.4496333      0              0              0              0.82000709   
     24600   1.1718253      0.82158588    -4.3456904     -1.4073753      0.88833289     0.32462622     1.2152269      1.1251456     -0.26107611    -0.13792607     0.31811223     6.4454994      6.4454994      6.4454994      0              0              0              0.82158588   
     24700   1.0397066      0.82226426    -4.1450226     -0.81199849     1.3315164      1.8676412      0.70899638     1.4179117     -1.0153887      0.82758649    -0.26425103     6.4437263      6.4437263      6.4437263      0              0              0              0.82226426   
     24800   1.10259        0.82229561    -4.2980599     -1.738589       0.68314472     0.20913088     0.94022121     0.90008206    -0.034331742   -0.064652304   -0.17323363     6.4436445      6.4436445      6.4436445      0              0              0              0.82229561   
     24900   1.0939758      0.82261136    -4.3683214     -1.9962327      0.5528919      0.36363458     0.65675476     0.63828638    -0.25566155    -0.26497726     0.25388317     6.4428199      6.4428199      6.4428199      0              0              0              0.82261136   
     25000   1.0401601      0.82316494    -4.3587855     -1.9394917      0.64869499     0.2943253      0.63595983     1.0157998      0.18045287     0.14105589     0.088305389    6.4413753      6.4413753      6.4413753      0              0              0              0.82316494   
     25100   0.97455521     0.82437671    -4.3106521     -1.8879067      0.7256177      1.4120355      0.092504067    0.6723135     -0.47607447    -0.0023558632  -0.10058057     6.4382177      6.4382177      6.4382177      0              0              0              0.82437671   
     25200   0.99071178     0.8260745     -4.3591813     -1.7491721      0.84963407     0.54599842     1.5834562      0.4194476     -0.12707221     0.017373963    0.056251454    6.4338039      6.4338039      6.4338039      0              0              0              0.8260745    
     25300   0.98557897     0.82750965    -4.3673401     -1.9745343      0.69347504     1.0054643      1.0217023      0.053258575   -0.2392196      0.34011285    -0.25722354     6.4300824      6.4300824      6.4300824      0              0              0              0.82750965   
     25400   0.99519357     0.82922468    -4.3946414     -1.3985029      1.1389115      1.0581988      0.95063052     1.4079053      0.44531776     0.039767422   -0.85451167     6.4256464      6.4256464      6.4256464      0              0              0              0.82922468   
     25500   0.94333277     0.83030882    -4.3311458     -1.8759323      0.79052141     0.74069512     1.2725282      0.35834094     0.36299135     0.0081876153  -0.23732756     6.4228485      6.4228485      6.4228485      0              0              0              0.83030882   
     25600   0.967374       0.83138682    -4.3710351     -1.7517283      0.88845097     0.89758607     0.70376365     1.0640032     -0.66908303    -0.25180553     0.11879435     6.4200713      6.4200713      6.4200713      0              0              0              0.83138682   
     25700   1.0081363      0.83219396    -4.4183758     -2.2972654      0.46638199    -0.2435455      1.2017163      0.44097514     0.048594252   -0.50601313     0.23774479     6.417995       6.417995       6.417995       0              0              0              0.83219396   
     25800   1.0086935      0.83364578    -4.3878509     -1.5101352      1.039966       1.2651382      0.738203       1.1165569     -0.13414797     0.27395483    -0.21106593     6.4142671      6.4142671      6.4142671      0              0              0              0.83364578   
     25900   1.0081952      0.83435065    -4.3309689     -1.2402322      1.202986       1.2665592      1.3367768      1.0056219     -0.08987629     0.080115437    0.013211443    6.4124603      6.4124603      6.4124603      0              0              0              0.83435065   
     26000   1.0291053      0.83437559    -4.2859829     -0.37078572     1.8047222      1.0772366      2.0985187      2.2384113     -0.34675463    -0.069233618    0.33313577     6.4123964      6.4123964      6.4123964      0              0              0              0.83437559   
     26100   1.1489982      0.83308606    -4.4027076     -1.9253856      0.57743636     0.39971853     0.41500137     0.91758918    -0.1364615      0.23618161     0.2048652      6.4157033      6.4157033      6.4157033      0              0              0              0.83308606   
     26200   1.1190526      0.83278296    -4.3498585     -1.3893001      0.97690919     0.62931215     1.1430515      1.1583639     -0.24910366    -0.39663778    -0.029708374    6.4164815      6.4164815      6.4164815      0              0              0              0.83278296   
     26300   1.1204478      0.83213597    -4.3995183     -1.0592726      1.2618036      1.4243649      1.2604052      1.1006406     -0.31858325     0.076553637   -0.022681328    6.4181441      6.4181441      6.4181441      0              0              0              0.83213597   
     26400   1.040422       0.8316219     -4.3786438     -2.7693804      0.042664888    0.57230657    -0.54411835     0.099806442   -0.21066196    -0.14675373    -0.04877307     6.4194663      6.4194663      6.4194663      0              0              0              0.8316219    
     26500   1.0021264      0.83278473    -4.4105686     -2.0799753      0.63209845     0.36740219     1.1341641      0.39472909     0.10763348     0.054755675   -0.21927436     6.416477       6.416477       6.416477       0              0              0              0.83278473   
     26600   0.96167389     0.83429119    -4.3819604     -1.5712487      1.0431775      0.98834882     1.1606296      0.98055417     0.01457991    -0.36919728     0.18666275     6.4126127      6.4126127      6.4126127      0              0              0              0.83429119   
     26700   0.96672949     0.83608159    -4.397732      -1.690881       0.96073926     0.61301334     1.4554548      0.81374968    -0.18624623    -0.28513801     0.037892317    6.408032       6.408032       6.408032       0              0              0              0.83608159   
     26800   0.98378518     0.83793018    -4.4279108     -1.560879       1.065491       1.60852        0.55005176     1.0379013     -0.16701097     0.062027516    0.24709114     6.4033162      6.4033162      6.4033162      0              0              0              0.83793018   
     26900   0.98890146     0.83970392    -4.4414198     -1.742251       0.93377624     1.7144896      0.62504595     0.46179315     0.20709318    -0.1213485      0.038166078    6.3988044      6.3988044      6.3988044      0              0              0              0.83970392   
     27000   1.0020345      0.8415781     -4.4730754     -2.202177       0.59320689     0.79241641     0.95611273     0.031091517   -0.082920001    0.23715438     0.000385087    6.3940508      6.3940508      6.3940508      0              0              0              0.8415781    
     27100   1.0521416      0.84338508    -4.5565683     -2.2127913      0.5930191      0.52097972     0.8282021      0.42987548    -0.28462576    -0.10849528     0.38540729     6.3894811      6.3894811      6.3894811      0              0              0              0.84338508   
     27200   0.9432451      0.84516205    -4.4047681     -1.9780208      0.78289198     0.71731772     0.82397694     0.80738128    -0.73433691    -0.24140944     0.22054991     6.3849999      6.3849999      6.3849999      0              0              0              0.84516205   
     27300   1.0106522      0.84640833    -4.5138687     -1.5621671      1.1105671      1.2795832      0.97591758     1.0762004      0.061948832   -0.15336945    -0.3562707      6.3818646      6.3818646      6.3818646      0              0              0              0.84640833   
     27400   0.97621011     0.84757556    -4.4730694     -2.0409499      0.75135713     0.94454832     0.93752791     0.37199517    -0.2526298      0.071226841   -0.34603642     6.3789336      6.3789336      6.3789336      0              0              0              0.84757556   
     27500   1.0155262      0.84924585    -4.5372954     -2.4901131      0.4103474      0.14328203     0.70108567     0.3866745     -0.27994142    -0.1908494     -0.44041056     6.3747489      6.3747489      6.3747489      0              0              0              0.84924585   
     27600   0.94090405     0.85101977    -4.4238798     -1.771225       0.96579566     0.86173045     1.214655       0.82100152     0.1801484     -0.2325737     -0.26164087     6.3703165      6.3703165      6.3703165      0              0              0              0.85101977   
[...]
    136000   0.10428982     0.26896564    -2.5700735     -6.5447328     -1.00992       -2.5247489     -0.22057019    -0.28444086    -0.16104129     0.032879726    0.0082098428   23.156289      5.9433111      5.9433111      0              0              0              0.26896564   
    137000   0.20103448     0.26628938    -2.8598014     -4.9880608     -0.58784674    -1.3333673     -0.21615555    -0.21401738    -0.11169974    -0.075209543   -0.02818994     23.389013      5.9433111      5.9433111      0              0              0              0.26628938   
    138000   0.10585892     0.26363976    -3.0182073     -5.1192677     -0.54143334    -1.0773962     -0.26498281    -0.28192103    -0.11420661    -0.0042505382   0.0029752665   23.624077      5.9433111      5.9433111      0              0              0              0.26363976   
    139000   0.10256381     0.2610165     -3.0757398     -5.3387812     -0.57331512    -1.2100691     -0.24144328    -0.26843295    -0.043719453   -0.025834171    0.013891781    23.861503      5.9433111      5.9433111      0              0              0              0.2610165    
    140000   0.098964385    0.25841934    -3.1264119     -5.1979347     -0.52135566    -1.1773591     -0.20475279    -0.18195505    -0.079341542    0.0032912251   0.0063262418   24.101315      5.9433111      5.9433111      0              0              0              0.25841934   
    141000   0.11391842     0.25584803    -3.1030952     -5.444772      -0.5841941     -1.253335      -0.19325971    -0.30598762    -0.12439828    -0.010645336   -0.00047024709  24.343537      5.9433111      5.9433111      0              0              0              0.25584803   
    142000   0.092946597    0.2533023     -3.1571727     -5.5952488     -0.59337187    -1.2401638     -0.2372902     -0.30266166    -0.10797442    -0.072919608    0.001225551    24.588194      5.9433111      5.9433111      0              0              0              0.2533023    
    143000   0.10700232     0.2507819     -3.106464      -5.6798421     -0.62309705    -1.3391229     -0.3362239     -0.19394437    -0.13595959     0.022442861    0.0084924994   24.835309      5.9433111      5.9433111      0              0              0              0.2507819    
    144000   0.10930135     0.24828658    -3.0731198     -5.4606988     -0.57573396    -1.3228766     -0.19212218    -0.21220314    -0.098264635    0.01966644     0.0098362906   25.084908      5.9433111      5.9433111      0              0              0              0.24828658   
    145000   0.10925583     0.24581608    -3.0028248     -5.9397935     -0.6927618     -1.4921563     -0.32820858    -0.25792052    -0.081561557    0.014976212    0.026501694    25.337016      5.9433111      5.9433111      0              0              0              0.24581608   
    146000   0.099518028    0.24337017    -2.9631974     -5.9396263     -0.6913836     -1.534334      -0.3135055     -0.22631127    -0.1201112      0.040745323    0.019741054    25.591657      5.9433111      5.9433111      0              0              0              0.24337017   
    147000   0.10282604     0.2409486     -2.9338959     -6.1846136     -0.74566705    -1.6226622     -0.29505344    -0.31928547    -0.11515995    -0.0021964331  -0.014619002    25.848857      5.9433111      5.9433111      0              0              0              0.2409486    
    148000   0.096112688    0.23855112    -2.8876186     -5.7740753     -0.65707926    -1.484064      -0.24728797    -0.23988583    -0.15132233     0.006507491    0.032586972    26.108643      5.9433111      5.9433111      0              0              0              0.23855112   
    149000   0.098483378    0.2361775     -2.8805917     -5.8480996     -0.66870316    -1.6170083     -0.15430907    -0.2347921     -0.24294265    -0.015426289    0.02593605     26.371039      5.9433111      5.9433111      0              0              0              0.2361775    
    150000   0.10532053     0.23382749    -2.8296241     -6.4416671     -0.80122772    -1.7272841     -0.36662255    -0.30977656    -0.21754245     0.040130086    0.012889714    26.636072      5.9433111      5.9433111      0              0              0              0.23382749   
    151000   0.10570163     0.23150087    -2.8201051     -6.1774785     -0.73977851    -1.660349      -0.26993328    -0.28905325    -0.22781513     0.0014074464   0.082413955    26.903769      5.9433111      5.9433111      0              0              0              0.23150087   
    152000   0.090866997    0.2291974     -2.7728332     -6.2529515     -0.75337962    -1.6292942     -0.27922659    -0.35161806    -0.21658841     0.0055320406   0.10326399     27.174157      5.9433111      5.9433111      0              0              0              0.2291974    
    153000   0.10659955     0.22691684    -2.7530099     -6.3384855     -0.77246114    -1.7248505     -0.30644342    -0.2860895     -0.20525051    -0.076231775    0.044455777    27.447261      5.9433111      5.9433111      0              0              0              0.22691684   
    154000   0.11436185     0.22465898    -3.0563545     -5.327         -0.49860623    -1.0403864     -0.22746692    -0.22796538    -0.10020783    -0.047748539    0.024083507    27.723111      5.9433111      5.9433111      0              0              0              0.22465898   
    155000   0.1043235      0.22242359    -3.3675471     -3.9872504     -0.15678964    -0.24086413    -0.085989324   -0.14351548     0.035616552   -0.027482303   -0.035342246    28.001733      5.9433111      5.9433111      0              0              0              0.22242359   
    156000   0.10195366     0.22021044    -3.479182      -3.892084      -0.11312168    -0.18546062    -0.11100523    -0.042899184   -0.036907282    0.05631883    -0.014454494    28.283155      5.9433111      5.9433111      0              0              0              0.22021044   
    157000   0.091934054    0.21801931    -3.6162575     -3.5520986     -0.014479       0.070980942   -0.10213123    -0.012286714   -0.0022556241  -0.030159604    0.020230473    28.567405      5.9433111      5.9433111      0              0              0              0.21801931   
    158000   0.10028771     0.21584998    -3.6803549     -3.8558208     -0.063802365    0.030826085   -0.13881273    -0.083420453   -0.03402172     0.029031008   -0.023088999    28.854513      5.9433111      5.9433111      0              0              0              0.21584998   
    159000   0.10302826     0.21370224    -3.7780218     -3.7590096     -0.026179979    0.079690243   -0.10277152    -0.055458664   -0.01426194    -0.0030159381  -0.01744341     29.144505      5.9433111      5.9433111      0              0              0              0.21370224   
    160000   0.10118055     0.21157586    -3.8136221     -4.0905979     -0.08231989    -0.0051033301  -0.11679239    -0.12506395     0.013488065   -0.033383378   -0.021579072    29.437412      5.9433111      5.9433111      0              0              0              0.21157586   
    161000   0.12366865     0.20947065    -3.9370979     -4.2100017     -0.087116789   -0.03821801    -0.10427585    -0.11885651     0.031757312    0.023346494   -0.024743832    29.733263      5.9433111      5.9433111      0              0              0              0.20947065   
    162000   0.099554933    0.20738638    -4.0154196     -4.3474731     -0.090616389    0.045996436   -0.12379188    -0.19405372    -0.0011162966  -0.033749553    0.022115344    30.032088      5.9433111      5.9433111      0              0              0              0.20738638   
    163000   0.099327397    0.20532285    -4.039187      -4.4766549     -0.10932771    -0.040213772   -0.087182072   -0.2005873     -0.0097600171   0.032428738   -0.020058613    30.333915      5.9433111      5.9433111      0              0              0              0.20532285   
    164000   0.10521841     0.20327986    -4.106017      -4.4389371     -0.090544283    0.053485048   -0.13371324    -0.19140466    -0.038141672   -0.070167508   -0.0090903264   30.638776      5.9433111      5.9433111      0              0              0              0.20327986   
    165000   0.10559233     0.20125719    -4.1627635     -4.6160681     -0.11177115    -0.038906605   -0.17215569    -0.12425115     0.0094736227   0.0066420387  -0.00087353943  30.946701      5.9433111      5.9433111      0              0              0              0.20125719   
    166000   0.094591998    0.19925464    -4.1833241     -4.409671      -0.066573774    0.035421483   -0.10723971    -0.1279031      0.040129758   -0.032836126   -0.0082942075   31.25772       5.9433111      5.9433111      0              0              0              0.19925464   
    167000   0.10783286     0.19727203    -4.2356388     -4.2224507     -0.026497665    0.070164758   -0.1055173     -0.044140451    0.02212071    -0.0071531415   0.027834713    31.571866      5.9433111      5.9433111      0              0              0              0.19727203   
    168000   0.098249124    0.19530914    -4.2690109     -4.4036733     -0.049945744   -0.039677107   -0.047398819   -0.062761308   -0.01889977     0.027022046   -0.01657274     31.889168      5.9433111      5.9433111      0              0              0              0.19530914   
    169000   0.094818377    0.19336578    -4.3150119     -4.6206251     -0.078599605    0.013406395   -0.084679432   -0.16452578     0.03008072    -0.013176203   -0.015767117    32.20966       5.9433111      5.9433111      0              0              0              0.19336578   
    170000   0.10359141     0.19144176    -4.3175497     -4.867508      -0.12262165    -0.04218521    -0.15980162    -0.16587812     0.050813082   -0.023705345    0.0020671524   32.533372      5.9433111      5.9433111      0              0              0              0.19144176   
    171000   0.10021763     0.18953688    -4.3387537     -4.7259221     -0.092484202    0.011302751   -0.14911794    -0.13963742     0.024640918   -0.035832126    0.011310889    32.860338      5.9433111      5.9433111      0              0              0              0.18953688   
    172000   0.10639792     0.18765096    -4.3623562     -4.370217      -0.028430777    0.055192313   -0.070759067   -0.069725577    0.0052016006   0.020821437    0.03036202     33.19059       5.9433111      5.9433111      0              0              0              0.18765096   
    173000   0.098485179    0.1857838     -4.3894201     -4.5608232     -0.053774663    0.011715811   -0.13296021    -0.040079586   -0.018377051   -0.022009046    0.013315711    33.524161      5.9433111      5.9433111      0              0              0              0.1857838    
    174000   0.10083901     0.18393522    -4.3975634     -4.6511589     -0.067570737   -0.026810788   -0.14543786    -0.030463559    0.018139809    0.0082924077   0.020304512    33.861084      5.9433111      5.9433111      0              0              0              0.18393522   
    175000   0.099800398    0.18210503    -4.4598751     -4.3177069     -0.0011230832   0.016857537    0.020158146   -0.040384933   -0.001797142    0.0085748227  -0.0026708003   34.201394      5.9433111      5.9433111      0              0              0              0.18210503   
    176000   0.097252733    0.18029306    -4.469399      -4.7366887     -0.067599972    0.0099527604  -0.075718211   -0.13703447     0.025908665   -0.011300869   -0.009741399    34.545124      5.9433111      5.9433111      0              0              0              0.18029306   
    177000   0.10309931     0.17849911    -4.5218112     -4.8137288     -0.072339745   -0.070929792   -0.03280155    -0.11328789     0.018164401   -0.0320133      0.045723029    34.892308      5.9433111      5.9433111      0              0              0              0.17849911   
    178000   0.098842907    0.17672302    -4.5455103     -5.0717057     -0.10823777    -0.022781597   -0.14637559    -0.15555612    -0.0026341876  -0.016476508    0.032290186    35.242981      5.9433111      5.9433111      0              0              0              0.17672302   
    179000   0.098965325    0.17496459    -4.6042554     -5.058964      -0.095819249   -0.0027398768  -0.1342843     -0.15043357     0.041297026    0.0026746894   0.013811912    35.597179      5.9433111      5.9433111      0              0              0              0.17496459   
    180000   0.11008127     0.17322367    -4.5967081     -5.0153909     -0.091805244   -0.021611946   -0.11866554    -0.13513825    -0.016995013    0.036278571    0.012498258    35.954937      5.9433111      5.9433111      0              0              0              0.17322367   
    181000   0.095978075    0.17150006    -4.5865179     -4.8759646     -0.067460949    0.011366487   -0.14722443    -0.066524907    0.0092534423   0.066285044    0.0030416038   36.31629       5.9433111      5.9433111      0              0              0              0.17150006   
    182000   0.094768387    0.16979361    -4.6048869     -5.0536022     -0.091095384    0.0034267756  -0.13862232    -0.13809061    -0.01272844     0.011819868    0.037137156    36.681275      5.9433111      5.9433111      0              0              0              0.16979361   
    183000   0.099244121    0.16810413    -4.5951304     -5.1439871     -0.10651361    -0.036133974   -0.10758173    -0.17582512    -0.027064734   -0.025745817    0.018460568    37.049928      5.9433111      5.9433111      0              0              0              0.16810413   
    184000   0.092628164    0.16643147    -4.5947886     -5.3242834     -0.13129058    -0.020617619   -0.20180967    -0.17144444    -0.04761739    -0.014140501    0.046694797    37.422286      5.9433111      5.9433111      0              0              0              0.16643147   
    185000   0.099351472    0.16477545    -4.5838085     -5.045745      -0.091408211    0.0066540971  -0.12120194    -0.15967679     0.025298154    0.0010011623   0.041374854    37.798386      5.9433111      5.9433111      0              0              0              0.16477545   
    186000   0.10437164     0.16313591    -4.5995845     -5.1643133     -0.10685453    -0.017962127   -0.17617993    -0.12642154     0.0025430141   0.015378068    0.034061262    38.178266      5.9433111      5.9433111      0              0              0              0.16313591   
    187000   0.095630489    0.16151268    -4.5847741     -5.3055885     -0.12679374    -0.080119862   -0.15009834    -0.15016302    -0.0024120478  -0.0028009828   0.017859848    38.561964      5.9433111      5.9433111      0              0              0              0.16151268   
    188000   0.094774091    0.1599056     -4.6014515     -5.2874498     -0.12028516    -0.016677412   -0.14820835    -0.19596972    -0.0010708978   0.010471605    0.032550848    38.949518      5.9433111      5.9433111      0              0              0              0.1599056    
    189000   0.098749781    0.15831451    -4.6089702     -5.2082921     -0.10746763     0.011068279   -0.15176759    -0.18170357     0.029364102    0.013234108   -0.029582726    39.340967      5.9433111      5.9433111      0              0              0              0.15831451   
    190000   0.1055651      0.15673925    -4.5992823     -4.8684589     -0.060805219    0.051165743   -0.085294995   -0.1482864      0.045428765   -0.035873149    0.0078229498   39.736351      5.9433111      5.9433111      0              0              0              0.15673925   
    191000   0.1029605      0.15517967    -4.6071939     -5.2308543     -0.10965969    -0.035541961   -0.10112906    -0.19230804    -0.0075994381   0.01753517     0.019459273    40.135707      5.9433111      5.9433111      0              0              0              0.15517967   
    192000   0.1061324      0.15363561    -4.5877746     -5.0200773     -0.082503062   -0.015908623   -0.052728936   -0.17887163     0.02791378     0.0035639814   0.050501082    40.539078      5.9433111      5.9433111      0              0              0              0.15363561   
    193000   0.094470695    0.15210691    -4.5913641     -5.3351541     -0.12234753    -0.065425243   -0.14308101    -0.15853635    -0.0017732661  -0.010516762   -0.009173179    40.946503      5.9433111      5.9433111      0              0              0              0.15210691   
    194000   0.097418218    0.15059342    -4.594103      -5.2165707     -0.10512302    -0.012853056   -0.1653373     -0.13717871     0.016296238    0.023726923    0.010503274    41.358022      5.9433111      5.9433111      0              0              0              0.15059342   
    195000   0.097415291    0.14909499    -4.5732863     -5.1649522     -0.099901529   -0.02931894    -0.16425626    -0.10612939     0.024908195    0.01399707     0.032590904    41.773677      5.9433111      5.9433111      0              0              0              0.14909499   
    196000   0.10210939     0.14761147    -4.602288      -4.8925935     -0.059407402    0.01347055    -0.086272428   -0.10542033    -0.0046258351  -0.01682569     0.032760526    42.193509      5.9433111      5.9433111      0              0              0              0.14761147   
    197000   0.10418527     0.14614271    -4.615078      -5.0740073     -0.081630776   -0.0077786826  -0.11379441    -0.12331923    -0.02182613     0.010651359   -0.0069348677   42.617561      5.9433111      5.9433111      0              0              0              0.14614271   
    198000   0.098553903    0.14468857    -4.6126654     -5.3274985     -0.11337334    -0.028695072   -0.14954392    -0.16188102    -0.019379923    0.035444248    0.039473475    43.045875      5.9433111      5.9433111      0              0              0              0.14468857   
    199000   0.10364833     0.14324889    -4.5976431     -5.2383223     -0.10357862    -0.011734886   -0.11537553    -0.18362545    -0.030705477   -0.033983706    0.041562634    43.478493      5.9433111      5.9433111      0              0              0              0.14324889   
    200000   0.09188716     0.14182354    -4.614124      -4.9716574     -0.063778687    0.024948304   -0.10197684    -0.11430752     0.020181364    0.017641917    0.043874898    43.915459      5.9433111      5.9433111      0              0              0              0.14182354   
Loop time of 24.3791 on 12 procs for 200000 steps with 200 atoms

Performance: 1417610.287 tau/day, 8203.763 timesteps/s
98.8% CPU use with 12 MPI tasks x 1 OpenMP threads

MPI task timing breakdown:
Section |  min time  |  avg time  |  max time  |%varavg| %total
---------------------------------------------------------------
Pair    | 0.27753    | 1.0822     | 1.9655     |  53.6 |  4.44
Bond    | 0.029514   | 0.065815   | 0.11132    |   9.5 |  0.27
Neigh   | 0.041008   | 0.043058   | 0.045538   |   0.8 |  0.18
Comm    | 5.4027     | 5.7182     | 6.1276     |   8.7 | 23.46
Output  | 0.028577   | 0.028738   | 0.030104   |   0.2 |  0.12
Modify  | 16.245     | 16.857     | 17.752     |  13.8 | 69.15
Other   |            | 0.5836     |            |       |  2.39

Nlocal:        16.6667 ave          52 max           0 min
Histogram: 6 0 0 0 2 2 0 0 1 1
Nghost:        240.833 ave         542 max           7 min
Histogram: 6 0 0 0 0 0 0 2 2 2
Neighs:         900.75 ave        2464 max           0 min
Histogram: 6 0 0 0 0 3 0 0 1 2

Total # of neighbors = 10809
Ave neighs/atom = 54.045
Ave special neighs/atom = 9.56
Neighbor list builds = 531
Dangerous builds = 0
System init for write_data ...
Generated 0 of 1 mixed pair_coeff terms from geometric mixing rule
WARNING: Not all mixed pair coeffs generated from mixing. Use write_data with 'pair ij' option to store all pair coeffs. (src/write_data.cpp:309)
Total wall time: 0:00:24
