LAMMPS (23 Jun 2022)
OMP_NUM_THREADS environment is not set. Defaulting to 1 thread. (src/comm.cpp:98)
  using 1 OpenMP thread(s) per MPI task
Reading data file ...
  orthogonal box = (96.947856 96.947856 96.947856) to (103.05214 103.05214 103.05214)
  2 by 2 by 3 MPI processor grid
  reading atoms ...
  200 atoms
  scanning bonds ...
  4 = max bonds/atom
  reading bonds ...
  224 bonds
Finding 1-2 1-3 1-4 neighbors ...
  special bond factors lj:    0        0        0       
  special bond factors coul:  0        0        0       
     4 = max # of 1-2 neighbors
     4 = max # of 1-3 neighbors
    10 = max # of 1-4 neighbors
    12 = max # of special neighbors
  special bonds CPU = 0.001 seconds
  read_data CPU = 0.007 seconds
Finding 1-2 1-3 1-4 neighbors ...
  special bond factors lj:    0        1        1       
  special bond factors coul:  0        0        0       
     4 = max # of 1-2 neighbors
     4 = max # of 1-3 neighbors
    10 = max # of 1-4 neighbors
    12 = max # of special neighbors
  special bonds CPU = 0.000 seconds
Generated 0 of 1 mixed pair_coeff terms from geometric mixing rule
Neighbor list info ...
  update every 1 steps, delay 0 steps, check yes
  max neighbors/atom: 2000, page size: 100000
  master list distance cutoff = 5.5
  ghost atom cutoff = 5.5
  binsize = 2.75, bins = 3 3 3
  1 neighbor lists, perpetual/occasional/extra = 1 0 0
  (1) pair lj/cut, perpetual
      attributes: half, newton on
      pair build: half/bin/newton
      stencil: half/bin/3d
      bin: standard
WARNING: Proc sub-domain size < neighbor skin, could lead to lost atoms (src/domain.cpp:970)
Setting up Verlet run ...
  Unit style    : lj
  Current step  : 0
  Time step     : 0.002
WARNING: Inconsistent image flags (src/domain.cpp:819)
Per MPI rank memory allocation (min/avg/max) = 8.435 | 8.437 | 8.438 Mbytes
   Step          Temp         Density         PotEng        Enthalpy        Press           Pxx            Pyy            Pzz            Pxy            Pxz            Pyz             Lx             Ly             Lz             Xy             Yz             Xz          Density    
         0   1.5            0.96720276    -4.3658156      0.95559972     2.7105113      2.5524309      3.3748789      2.204224       0.0098957633   0.62363504    -0.14871622     6.1042885      6.1042885      6.1042885      0              0              0              0.96720276   
      1000   1.3862425      0.8108174     -2.9271076     -0.21209885     0.47620177     0.10750988     0.90297002     0.4181254      0.7346977      0.076967622   -0.026379523    6.4739082      6.4739082      6.4739082      0              0              0              0.8108174    
      2000   1.4809664      0.78152539    -2.8589266      0.17924528     0.5881543      1.2869646      0.50712122    -0.029622875    0.12887553     0.52420915     0.028584009    6.5538002      6.5538002      6.5538002      0              0              0              0.78152539   
      3000   1.6738734      0.81451401    -2.9202193      1.2356524      1.2274102      1.559742       1.335652       0.78683649    -0.22900206    -0.021972001   -0.15719674     6.4640996      6.4640996      6.4640996      0              0              0              0.81451401   
      4000   1.3690927      0.80098968    -2.7418371      0.95868625     1.2066928      1.8527382      0.53383002     1.2335102      0.098108203    0.38622601    -0.017620332    6.5002778      6.5002778      6.5002778      0              0              0              0.80098968   
      5000   1.3995394      0.79415612    -2.7982862     -0.27591949     0.31300881     0.40463446     0.58981882    -0.055426856    0.30487712    -0.040716696   -0.19221775     6.5188692      6.5188692      6.5188692      0              0              0              0.79415612   
      6000   1.460864       0.84755738    -3.1129452      1.0016863      1.4903849      0.93100263     1.8011059      1.7390462     -1.062686      -0.18400702     0.25256494     6.3789793      6.3789793      6.3789793      0              0              0              0.84755738   
      7000   1.2120949      0.79794643    -3.0651287     -0.22692867     0.7465502      0.74304026     0.84506357     0.65154676    -0.29862698    -0.73386567     0.34963851     6.5085311      6.5085311      6.5085311      0              0              0              0.79794643   
      8000   1.435901       0.80574944    -2.7240687      1.0236647      1.1754062      0.45171403     1.7218243      1.3526804      0.33741554     0.24182648    -0.058458146    6.487453       6.487453       6.487453       0              0              0              0.80574944   
      9000   1.3479358      0.8214901     -2.9203806      1.9076895      2.1032206      2.7802309      2.2041385      1.3252926      0.41786918    -0.30925635    -0.10218529     6.4457499      6.4457499      6.4457499      0              0              0              0.8214901    
     10000   1.2678902      0.80852755    -2.978246      -0.52083095     0.41535444     0.9442848     -0.19143889     0.4932174      0.028845367   -0.40423666     0.16812717     6.4800141      6.4800141      6.4800141      0              0              0              0.80852755   
     11000   1.5238171      0.79728715    -3.0487661      0.39228694     0.8456723      1.4381455      0.67908508     0.41978626     0.18234621    -0.027858235    0.21331893     6.5103245      6.5103245      6.5103245      0              0              0              0.79728715   
     12000   1.4132692      0.79913672    -2.9527681     -0.60950729     0.16996663    -0.57736176     0.23404653     0.85321511    -0.74043012    -0.090374744    0.17517372     6.505298       6.505298       6.505298       0              0              0              0.79913672   
     13000   1.3556331      0.82773185    -3.1767734      0.40381041     1.1718436      1.2026915      0.68357394     1.6292653     -0.3629362      0.27686112     0.76241258     6.429507       6.429507       6.429507       0              0              0              0.82773185   
     14000   1.518068       0.81976155    -3.1930333      0.35981589     0.95921993     0.87119        1.0501113      0.95635849    -0.31123111     0.52012556     0.082649013    6.4502772      6.4502772      6.4502772      0              0              0              0.81976155   
     15000   1.4096374      0.83027425    -3.2293387      1.0398497      1.6343605      1.8970339      1.2922359      1.7138118      0.11266525    -0.28252118    -0.31732979     6.4229376      6.4229376      6.4229376      0              0              0              0.83027425   
     16000   1.4269602      0.83836912    -3.1275304      0.049663429    0.7983223      1.3738759      1.0563377     -0.035246737    0.072825126   -0.83442706    -0.068729487    6.4021985      6.4021985      6.4021985      0              0              0              0.83836912   
     17000   1.3618817      0.81131809    -2.9251354      1.3049005      1.6207388      1.5553902      2.2384825      1.0683436      0.89564125     0.060682442   -0.01036118     6.4725762      6.4725762      6.4725762      0              0              0              0.81131809   
     18000   1.2971349      0.80461578    -3.1095982      0.97309859     1.5702611      1.7039122      1.2386942      1.7681769     -0.54025546     0.4989573     -0.28857641     6.4904984      6.4904984      6.4904984      0              0              0              0.80461578   
     19000   1.2757664      0.82347195    -3.1094608      0.042528797    0.9341977      0.64010484     0.96627503     1.1962132     -0.4618088     -0.42502348    -0.48151838     6.4405747      6.4405747      6.4405747      0              0              0              0.82347195   
     20000   1.4014465      0.83020104    -2.9966103      1.8153805      2.0531113      1.8460854      2.5834578      1.7297907      0.32022923     0.12638476    -0.034970863    6.4231264      6.4231264      6.4231264      0              0              0              0.83020104   
     21000   1.2284027      0.82477743    -3.1010103     -1.0770529      0.14288615    -0.20663848     0.25286937     0.38242756     0.026777362   -0.44483177    -0.60153155     6.4371748      6.4371748      6.4371748      0              0              0              0.82477743   
     22000   1.17818        0.8392714     -3.2764916     -0.38270483     0.86624494     1.0185374      1.4751395      0.10505793     0.15893689    -0.36281038    -0.44292836     6.3999034      6.3999034      6.3999034      0              0              0              0.8392714    
     23000   1.3079511      0.83382416    -3.2585388     -0.62490716     0.516603       1.0145521      0.61523476    -0.079977889   -0.46160305     0.15555224    -0.04156436     6.4138097      6.4138097      6.4138097      0              0              0              0.83382416   
     24000   1.3095712      0.84159929    -3.242561       0.49554226     1.3645906      1.4224404      1.5225171      1.1488145     -0.10405974    -0.41080148    -0.57511694     6.3939972      6.3939972      6.3939972      0              0              0              0.84159929   
     25000   1.2316954      0.83844312    -3.1621355      0.45360124     1.3547956      0.89744614     1.0476504      2.1192901     -0.40731409    -0.49048364    -0.61567332     6.4020101      6.4020101      6.4020101      0              0              0              0.83844312   
     26000   1.2521623      0.84037341    -3.4369159     -0.54801667     0.7792913      0.77176586     0.97201847     0.59408957     0.17667432    -0.42394156     0.32355238     6.3971047      6.3971047      6.3971047      0              0              0              0.84037341   
     27000   1.20615        0.82817165    -3.2244449     -0.23923975     0.89218653     0.98478516     1.4842607      0.20751371    -0.11432521    -0.38113908     0.25634851     6.4283686      6.4283686      6.4283686      0              0              0              0.82817165   
     28000   1.1093415      0.85651347    -3.2978692      0.64264325     1.7790721      1.1908004      2.0453367      2.1010793     -0.057403561   -0.34704175     0.21671832     6.3566675      6.3566675      6.3566675      0              0              0              0.85651347   
     29000   1.3557325      0.84812798    -3.4222584     -0.069377325    1.0250399      1.0318723      1.215442       0.82780559     0.26670619    -0.18710356     0.3135511      6.3775484      6.3775484      6.3775484      0              0              0              0.84812798   
     30000   1.2236899      0.8410962     -3.3336657      0.15602409     1.2718388      1.1064322      1.2850546      1.4240296     -0.48581373     0.52911917    -0.041230984    6.3952718      6.3952718      6.3952718      0              0              0              0.8410962    
     31000   1.1975326      0.85504574    -3.5003161     -1.537639       0.13630961     0.048241545    0.52558335    -0.16489606    -0.58542087    -0.10044206     0.29301836     6.3603026      6.3603026      6.3603026      0              0              0              0.85504574   
     32000   1.3328712      0.84439641    -3.4650456      0.30706555     1.3685369      1.2070844      2.0060196      0.89250681    -0.64510189     0.39896659    -0.47849355     6.3869292      6.3869292      6.3869292      0              0              0              0.84439641   
     33000   1.3243001      0.84693819    -3.3281575     -0.06362193     0.99170116     1.5698899      1.1856606      0.21955291    -0.5296721     -0.31628941    -0.08512497     6.3805334      6.3805334      6.3805334      0              0              0              0.84693819   
     34000   1.1144785      0.85834544    -3.5146519     -0.56614901     1.0028158      1.1062864      1.9161648     -0.014003925   -0.066602782   -0.22222441     0.31045218     6.3521419      6.3521419      6.3521419      0              0              0              0.85834544   
     35000   1.1894415      0.849738      -3.5087609     -0.23015627     1.1613316      0.99150223     1.1798952      1.3125974     -0.36174147    -0.099756108   -0.33263673     6.373518       6.373518       6.373518       0              0              0              0.849738     
     36000   1.08549        0.85566594    -3.4806025     -0.017157417    1.4339027      1.9753827      1.0577705      1.2685548      0.015812246    0.33977651    -0.20524937     6.3587655      6.3587655      6.3587655      0              0              0              0.85566594   
     37000   1.0480755      0.8532063     -3.5538527     -0.74426535     0.96593403     1.3107069      0.78541892     0.80167633    -0.61027023    -0.73609339     0.26838782     6.3648701      6.3648701      6.3648701      0              0              0              0.8532063    
     38000   1.1421983      0.86157984    -3.7218643     -1.5014721      0.40389396     0.0027122196   0.8435843      0.36538537     0.25977041     0.35809773    -0.28536722     6.3441832      6.3441832      6.3441832      0              0              0              0.86157984   
     39000   1.0959166      0.84524487    -3.4025292     -0.9196983      0.65097329     0.6620747      0.42621467     0.8646305     -0.45048893     0.35310176    -0.12629391     6.3847914      6.3847914      6.3847914      0              0              0              0.84524487   
     40000   1.2000589      0.89392847    -3.8516053     -0.77213547     1.0470193      0.89097516     1.1398215      1.1102613      0.44000929     0.37772046    -0.67085267     6.2667154      6.2667154      6.2667154      0              0              0              0.89392847   
     41000   1.0791556      0.85740063    -3.5748685     -1.7107682      0.19756109     0.50429181     0.47868717    -0.3902957     -0.64575159    -0.19874021     0.4101282      6.3544743      6.3544743      6.3544743      0              0              0              0.85740063   
     42000   1.030019       0.86509496    -3.6938089     -0.85963733     1.0199219      0.89476579     0.53822097     1.6267791     -0.39273804     0.29379042    -0.016731566    6.3355788      6.3355788      6.3355788      0              0              0              0.86509496   
     43000   1.0893795      0.88623724    -3.6812138     -0.30830881     1.4075108      1.5751927      1.4139247      1.233415      -0.17257572    -0.81016172    -0.148841       6.2847918      6.2847918      6.2847918      0              0              0              0.88623724   
     44000   1.0263384      0.87515456    -3.566611      -0.079991482    1.5552367      2.6102032      0.75208236     1.3034245      0.56142574     0.054254279    0.1195512      6.3112101      6.3112101      6.3112101      0              0              0              0.87515456   
     45000   1.0090314      0.87310056    -3.715218      -1.9368536      0.21619954     0.54136783    -0.1939112      0.30114197    -0.89412702     0.82809791    -0.79522716     6.3161554      6.3161554      6.3161554      0              0              0              0.87310056   
     46000   0.9667679      0.86734882    -3.6181767     -1.2085365      0.76227276     0.45221265     0.38609451     1.4485111      0.23107458     0.14407855    -0.71480082     6.3300863      6.3300863      6.3300863      0              0              0              0.86734882   
     47000   0.97673891     0.84934184    -3.5304558     -1.6220773      0.347918      -0.31611516     0.44839585     0.91147332    -0.43942509     0.2961948      0.34457671     6.3745087      6.3745087      6.3745087      0              0              0              0.84934184   
     48000   0.99494891     0.88574382    -3.7428645      0.37369034     2.1190162      2.2677328      2.6567124      1.4326033      0.022326841    0.58075295    -0.27134894     6.2859586      6.2859586      6.2859586      0              0              0              0.88574382   
     49000   1.1496881      0.88900727    -3.7753336     -0.64171759     1.145774       0.97132442     1.7075712      0.75842649    -0.74443477    -0.012822096    0.34584766     6.2782575      6.2782575      6.2782575      0              0              0              0.88900727   
     50000   1.0025154      0.88437204    -3.8210353     -1.2572703      0.85825158     1.4104325     -0.094937056    1.2592593     -0.054846518   -0.1374304      0.043170178    6.289207       6.289207       6.289207       0              0              0              0.88437204   
     51000   0.90087674     0.89528007    -3.8868511     -0.75052659     1.4583022      1.5823395      1.2243429      1.5682241     -0.72872765    -0.82181213    -0.078802148    6.2635602      6.2635602      6.2635602      0              0              0              0.89528007   
     52000   0.99914792     0.88903815    -3.9237034     -1.1902752      1.0039665      1.6838278     -0.27216565     1.6002373      0.044731146   -0.30715119     0.10012604     6.2781848      6.2781848      6.2781848      0              0              0              0.88903815   
     53000   0.95876925     0.88896084    -3.6914438     -0.30383683     1.5812543      1.3664516      1.1867924      2.1905189     -0.39075217    -0.16124799     0.64642756     6.2783668      6.2783668      6.2783668      0              0              0              0.88896084   
     54000   1.0031264      0.91293164    -3.9267747     -0.0039223805   2.0131688      2.7189157      1.6582974      1.6622934     -0.0047037466   0.015216967   -0.30020931     6.2229284      6.2229284      6.2229284      0              0              0              0.91293164   
     55000   0.85193278     0.88745145    -3.8480128     -0.91906957     1.3371744      1.332747       1.2469243      1.4318519      0.41454996     0.12564475     0.2242118      6.2819242      6.2819242      6.2819242      0              0              0              0.88745145   
     56000   0.88896586     0.90050464    -3.9217792     -0.53373629     1.6874322      1.5667457      1.6092982      1.8862527     -0.44223368    -0.077930245    0.1971571      6.2514233      6.2514233      6.2514233      0              0              0              0.90050464   
     57000   1.0300163      0.90737943    -3.9554499     -0.9314071      1.2264004      1.0600085      0.92893007     1.6902627      0.43770877    -0.32592224     0.24975878     6.2355952      6.2355952      6.2355952      0              0              0              0.90737943   
     58000   0.91883115     0.87626338    -3.8341719     -1.1070279      1.0800253      0.23081727     1.8979351      1.1113235     -0.062150557   -0.65859        0.037605629    6.3085469      6.3085469      6.3085469      0              0              0              0.87626338   
     59000   0.86077298     0.89751428    -3.9481333     -0.63963288     1.6512605      1.5034346      1.3567344      2.0936124     -0.24872457    -0.3540578     -0.011369857    6.2583585      6.2583585      6.2583585      0              0              0              0.89751428   
     60000   0.84059126     0.88228592    -3.7207989     -0.89072635     1.2636661      1.7302332      0.71905115     1.3417139      0.50259785     0.20624818    -0.31191609     6.29416        6.29416        6.29416        0              0              0              0.88228592   
     61000   0.84890848     0.90260329    -3.9674371     -0.97026618     1.4196924      1.1092846      1.6361728      1.5136196     -0.38343842     0.69338996    -0.1641855      6.2465745      6.2465745      6.2465745      0              0              0              0.90260329   
     62000   0.82515127     0.91954129    -4.0919244     -1.1558364      1.4249126      1.5416058      1.0784715      1.6546605     -0.33565916     0.46038543     0.081092805    6.2079825      6.2079825      6.2079825      0              0              0              0.91954129   
     63000   0.95973508     0.89323705    -4.0748427     -1.5576517      0.8808831      0.68075321     0.70517639     1.2567197      0.11154945     0.20936003    -0.26580273     6.2683319      6.2683319      6.2683319      0              0              0              0.89323705   
     64000   0.89226178     0.94030382    -4.2462119     -0.64825728     1.9372429      2.3761897      2.0899349      1.345604       0.26244367     0.050154062   -0.27071029     6.1619499      6.1619499      6.1619499      0              0              0              0.94030382   
     65000   0.80571295     0.91168817    -4.1986074     -2.3784965      0.51185851     0.2175768      0.44955865     0.86844008    -0.0063849525  -0.34396605     0.069922341    6.2257564      6.2257564      6.2257564      0              0              0              0.91168817   
     66000   0.81657456     0.93089194    -4.258657      -2.1583411      0.74604927     0.84288763     0.87305269     0.52220751    -0.029468772    0.74006221     0.85609598     6.1826473      6.1826473      6.1826473      0              0              0              0.93089194   
     67000   0.729548       0.93322419    -4.2218149     -1.4654863      1.4146646      1.1879267      1.8250572      1.2310098      0.42649657     0.72822276    -0.067956886    6.1774926      6.1774926      6.1774926      0              0              0              0.93322419   
     68000   0.86175547     0.90791518    -4.181102      -1.5509656      1.1092795      1.3093639      1.2971651      0.72130961    -0.074606613    0.10639587     0.72468134     6.2343685      6.2343685      6.2343685      0              0              0              0.90791518   
     69000   0.8605922      0.96710691    -4.4224513     -0.22177915     2.563922       2.0349824      3.4583201      2.1984636      0.037388322    0.5178524     -0.67279579     6.1044902      6.1044902      6.1044902      0              0              0              0.96710691   
     70000   0.79426691     0.92833299    -4.3512781     -2.5549816      0.51552281     0.36726831     0.67922999     0.50007013    -0.14312836     0.17129061    -0.21978325     6.1883229      6.1883229      6.1883229      0              0              0              0.92833299   
     71000   0.82308601     0.92930259    -4.3151397     -2.0952243      0.83760544     0.44987927     0.81243996     1.2504971      0.20206236    -0.22249177    -0.14793381     6.1861699      6.1861699      6.1861699      0              0              0              0.92930259   
     72000   0.84177414     0.93435151    -4.249844      -1.143767       1.5711793      1.5183578      1.9702519      1.2249281      0.29878247     0.47116613     0.48632517     6.1750071      6.1750071      6.1750071      0              0              0              0.93435151   
     73000   0.78374293     0.93480805    -4.3796404     -2.3720818      0.71200279     0.16367251     1.2129783      0.75935758    -0.38814831     0.42202134     0.48259497     6.1740017      6.1740017      6.1740017      0              0              0              0.93480805   
     74000   0.71253867     0.94609979    -4.4611854     -2.5330101      0.74373017     0.14892348     0.71773214     1.3645349     -0.15116213    -0.61885251     0.032475596    6.149341       6.149341       6.149341       0              0              0              0.94609979   
     75000   0.79859368     0.92958728    -4.4300912     -2.8338886      0.34166683     0.70098446     0.24688294     0.077133089   -0.85077675    -0.33634074    -0.13424992     6.1855383      6.1855383      6.1855383      0              0              0              0.92958728   
     76000   0.71550744     0.94588105    -4.37048       -1.3785299      1.6544795      1.5560592      1.426972       1.9804071     -0.081326362   -0.18220358    -0.042142788    6.149815       6.149815       6.149815       0              0              0              0.94588105   
     77000   0.77583004     0.92121992    -4.3300649     -2.4352394      0.61713288     0.16573254     1.3340273      0.35163883     0.15791323    -0.20762429     0.06923495     6.2042095      6.2042095      6.2042095      0              0              0              0.92121992   
     78000   0.74049662     0.95994241    -4.6199245     -2.3503935      1.0160902      1.4552035      1.299866       0.29320101    -0.25704417    -0.39885725    -0.12739362     6.1196394      6.1196394      6.1196394      0              0              0              0.95994241   
     79000   0.73952641     0.95502669    -4.4802281     -1.6462804      1.5021741      1.1549354      1.9878357      1.3637513      0.016449537   -0.44025099     0.083373674    6.1301211      6.1301211      6.1301211      0              0              0              0.95502669   
     80000   0.71918809     0.95486342    -4.6514357     -2.8760499      0.60937439     0.30878272     0.60514038     0.91420007    -0.057786769    0.42207946    -0.29176203     6.1304705      6.1304705      6.1304705      0              0              0              0.95486342   
     81000   0.65831745     0.95292328    -4.6036577     -3.2569894      0.31544319     0.65356236    -0.28501621     0.57778342    -0.3825712      0.1287954     -0.4608546      6.1346282      6.1346282      6.1346282      0              0              0              0.95292328   
     82000   0.78917847     0.96026275    -4.5705138     -2.0339185      1.1861396      1.2761276      1.3638673      0.91842403     0.21661054    -0.80914551     0.1154236      6.1189589      6.1189589      6.1189589      0              0              0              0.96026275   
     83000   0.68479226     0.96628114    -4.636715      -2.1397194      1.2956452      2.2521051      1.0509715      0.58385897    -0.068677698    0.38788309     0.78697627     6.1062286      6.1062286      6.1062286      0              0              0              0.96628114   
     84000   0.68811786     0.95475473    -4.6912435     -3.0339752      0.54703314     0.80802103     0.079425418    0.75365297     0.12811139     0.23265271     0.61614225     6.1307031      6.1307031      6.1307031      0              0              0              0.95475473   
     85000   0.68737109     0.95490295    -4.5720482     -1.8556056      1.4675481      1.4956321      1.9218514      0.98516061    -0.11487741    -0.37407755    -0.074879334    6.1303859      6.1303859      6.1303859      0              0              0              0.95490295   
     86000   0.67263693     0.9564733     -4.6988356     -3.2305704      0.40376615     0.5759372      0.15955718     0.47580407     0.22471611     0.48629214    -0.31463594     6.1270291      6.1270291      6.1270291      0              0              0              0.9564733    
     87000   0.60821618     0.95911264    -4.7614453     -3.5048395      0.30416356     0.37090308     0.74735908    -0.20577146     0.10658687     0.075516406   -0.11817512     6.1214037      6.1214037      6.1214037      0              0              0              0.95911264   
     88000   0.58823782     0.96281229    -4.7616209     -3.3335821      0.48148828     0.21079631     1.1285572      0.10511137     0.73727421    -0.32605225    -0.20601013     6.1135531      6.1135531      6.1135531      0              0              0              0.96281229   
     89000   0.65725741     0.97988696    -4.8509884     -2.6059171      1.1260813      0.9061758      1.4891998      0.98286821     0.60467959    -0.24120194     0.11136435     6.0778349      6.0778349      6.0778349      0              0              0              0.97988696   
     90000   0.62745729     0.97541148    -4.7903974     -2.5056788      1.195534       1.292416       1.6869018      0.60728438    -0.23526015    -0.72328577     0.37678961     6.0871164      6.0871164      6.0871164      0              0              0              0.97541148   
     91000   0.56722092     0.98105588    -4.8341048     -2.3069723      1.4988351      1.5328879      1.6970571      1.2665605      0.33684999     0.33922643    -0.10276463     6.0754201      6.0754201      6.0754201      0              0              0              0.98105588   
     92000   0.6372306      0.97329687    -4.8243539     -2.4645796      1.2464462      1.7328779      0.73954938     1.2669112     -0.25758582     0.070612025    0.17849961     6.0915215      6.0915215      6.0915215      0              0              0              0.97329687   
     93000   0.5967645      0.98746106    -4.9507105     -2.8089461      1.1230963      0.73130479     1.0478796      1.5901045      0.32990494     0.3725813     -0.26655507     6.0622555      6.0622555      6.0622555      0              0              0              0.98746106   
     94000   0.57789251     0.98489887    -4.9015745     -2.9151187      1.0063439      1.0787821      0.77979487     1.1604547      0.21414407     0.42525713    -0.26113537     6.0675079      6.0675079      6.0675079      0              0              0              0.98489887   
     95000   0.58736073     0.98043646    -4.9736942     -3.689948       0.3628598      0.79921095    -0.20473113     0.49409958    -0.12144828     0.40977078    -0.35793001     6.0766993      6.0766993      6.0766993      0              0              0              0.98043646   
     96000   0.5364323      0.98939735    -4.9261755     -2.979119       1.0311601      0.8236904      0.9967135      1.2730763     -0.041141679   -0.2885267     -0.67946999     6.0582982      6.0582982      6.0582982      0              0              0              0.98939735   
     97000   0.57574273     0.99474862    -5.0089837     -3.1102953      0.93994015     1.69271        0.51820727     0.60890315    -0.058401948    0.25921497     0.50390002     6.0474151      6.0474151      6.0474151      0              0              0              0.99474862   
     98000   0.53469712     0.99510712    -4.9790997     -2.4138134      1.5987308      1.4968044      1.6361692      1.6632187      0.046182162    0.10341197     0.32152186     6.0466888      6.0466888      6.0466888      0              0              0              0.99510712   
     99000   0.47895678     0.98815912    -4.9930153     -3.2640805      0.91098546     0.90627232     0.69545533     1.1312287     -0.20480319     0.56516499     0.30805895     6.0608276      6.0608276      6.0608276      0              0              0              0.98815912   
    100000   0.46088186     0.9842252     -5.062662      -4.3748611     -5.8400616e-05  0.102823      -0.044060273   -0.058937925    0.26072015    -0.12104367    -0.11037915     6.0688919      6.0688919      6.0688919      0              0              0              0.9842252    
    101000   0.48907968     1.0023646     -5.0535721     -2.6580733      1.5177143      1.8651449      0.80134007     1.8866579     -0.25829195     0.16790771     0.0818564      6.03206        6.03206        6.03206        0              0              0              1.0023646    
    102000   0.51911643     0.99332539    -5.0591826     -2.9132118      1.2382158      1.8683188      0.51950073     1.3268277      0.14952537    -0.035681996    0.040781239    6.0503019      6.0503019      6.0503019      0              0              0              0.99332539   
    103000   0.43453356     1.0010959     -5.1163919     -3.1986239      1.1551069      1.2160045      0.96313083     1.2861854     -0.38464657     0.13512753    -0.014678591    6.0346071      6.0346071      6.0346071      0              0              0              1.0010959    
    104000   0.45214046     0.99427823    -5.0309769     -3.0227072      1.2052913      1.0087888      1.0874235      1.5196615      0.54322468    -0.22657325     0.37548903     6.0483686      6.0483686      6.0483686      0              0              0              0.99427823   
    105000   0.43954878     1.0091306     -5.1251055     -2.9716013      1.3737732      1.0040632      1.0323428      2.0849137      0.22962891    -0.209606      -0.54933689     6.0185485      6.0185485      6.0185485      0              0              0              1.0091306    
    106000   0.42817613     0.99623066    -5.1259785     -3.4785954      0.9132086      0.20684882     0.90929001     1.623487      -0.42624423    -0.28322946     0.18323195     6.0444148      6.0444148      6.0444148      0              0              0              0.99623066   
    107000   0.43642169     0.99541023    -5.0858269     -3.3699531      0.96329865     1.2955769      0.19544712     1.3988719     -0.13832523     0.0850102     -0.054865368    6.0460749      6.0460749      6.0460749      0              0              0              0.99541023   
    108000   0.4379973      1.0190456     -5.2194997     -2.9156343      1.5287114      1.5829148      0.92608782     2.0771316     -0.18650443     0.24128928    -0.15034504     5.9989654      5.9989654      5.9989654      0              0              0              1.0190456    
    109000   0.41203635     0.99488276    -5.1408876     -3.9163544      0.55131789     0.7263543     -0.31997243     1.2475718     -0.0029704469  -0.13682821     0.28813471     6.0471433      6.0471433      6.0471433      0              0              0              0.99488276   
    110000   0.39356066     1.0147251     -5.2209062     -3.2153355      1.3082403      1.6173831      0.8038525      1.5034853     -0.14426281     0.22699751     0.19785137     6.0074675      6.0074675      6.0074675      0              0              0              1.0147251    
    111000   0.43669872     0.99880846    -5.1673453     -4.1243408      0.35524138     0.82924393    -0.50335502     0.73983522    -0.15305591    -0.17807236    -0.23944409     6.0392103      6.0392103      6.0392103      0              0              0              0.99880846   
    112000   0.37350678     1.0089377     -5.2467355     -3.6432222      0.95945802     1.5005871      0.90531771     0.47246924     0.05147439     0.3140363      0.10510248     6.018932       6.018932       6.018932       0              0              0              1.0089377    
    113000   0.37861821     1.0134555     -5.222542      -3.45491        1.1079321      1.1485656      0.69552774     1.4797029     -0.28598467    -0.16929875     0.20886831     6.0099749      6.0099749      6.0099749      0              0              0              1.0134555    
    114000   0.3374393      1.0145556     -5.2302665     -3.5423177      1.0923265      1.5233362      0.96528728     0.78835593    -0.3630833      0.25488239    -0.15087559     6.007802       6.007802       6.007802       0              0              0              1.0145556    
    115000   0.37718836     1.0175767     -5.3395469     -3.5225856      1.1600446      1.3821633      0.78664232     1.311328       0.11223488     0.11321006     0.10129316     6.0018504      6.0018504      6.0018504      0              0              0              1.0175767    
    116000   0.34190384     1.0094493     -5.2983135     -3.9964217      0.72643672     0.88068567     0.95478672     0.34383775     0.12915437     0.21055022    -0.12803683     6.0179151      6.0179151      6.0179151      0              0              0              1.0094493    
    117000   0.32511972     1.0229216     -5.3841341     -3.7499234      1.0684598      1.5609234      0.71024272     0.93421316     0.46516376     0.19582436     0.14761137     5.9913787      5.9913787      5.9913787      0              0              0              1.0229216    
    118000   0.29837071     1.0167119     -5.2868397     -3.5002548      1.2397106      1.5781787      0.76834832     1.3726049     -0.28751556     0.19767354    -0.044802082    6.0035517      6.0035517      6.0035517      0              0              0              1.0167119    
    119000   0.32644428     1.0230313     -5.3667037     -3.8984376      0.91240254     1.1033943      0.71866266     0.91515064     0.20319465     0.1676078      0.38385532     5.9911646      5.9911646      5.9911646      0              0              0              1.0230313    
    120000   0.31463998     1.0159149     -5.4042029     -4.2561437      0.62659689     1.0787627     -0.10634356     0.90737158     0.15843997     0.61868444     0.14373846     6.0051212      6.0051212      6.0051212      0              0              0              1.0159149    
    121000   0.29475495     1.0148033     -5.3412831     -4.3036833      0.55138697     1.5188243     -0.099997243    0.23533391     0.078448296    0.37133692    -0.18194269     6.0073131      6.0073131      6.0073131      0              0              0              1.0148033    
    122000   0.28691185     1.0337927     -5.3899592     -3.3790164      1.4874649      2.2215289      1.058483       1.1823829      0.042901392    0.97245507    -0.31029207     5.9703035      5.9703035      5.9703035      0              0              0              1.0337927    
    123000   0.26489672     1.0165046     -5.3636803     -4.024841       0.87186619     0.9967161      0.96476422     0.65411827     0.073667564    0.3344239      0.4114761      6.0039598      6.0039598      6.0039598      0              0              0              1.0165046    
    124000   0.2497422      1.0258541     -5.4087244     -4.1135353      0.86027085     1.494041       0.42663034     0.66014117     0.045114857    0.48169032    -0.35559796     5.9856644      5.9856644      5.9856644      0              0              0              1.0258541    
    125000   0.22346259     1.031457      -5.4290011     -3.8497448      1.1681142      1.8893218      0.78859503     0.82642577     0.18024239     0.43920273    -0.1118113      5.9748065      5.9748065      5.9748065      0              0              0              1.031457     
    126000   0.25018238     1.0178777     -5.4566253     -4.3924523      0.63920474     1.196154       0.24979037     0.47166983     0.07742373     0.56862073    -0.29082085     6.0012588      6.0012588      6.0012588      0              0              0              1.0178777    
    127000   0.23869372     1.0283808     -5.4843979     -4.1353393      0.92816808     1.5565483      0.7322006      0.49575531     0.070232369    0.23653575    -0.18810395     5.9807581      5.9807581      5.9807581      0              0              0              1.0283808    
    128000   0.22801108     1.0299726     -5.4934243     -4.1082004      0.97839658     1.6530171      0.20916808     1.0730045      0.20576251     0.17338136    -0.20340885     5.9776754      5.9776754      5.9776754      0              0              0              1.0299726    
    129000   0.20129932     1.0288682     -5.4365424     -4.0978068      0.97115466     1.1581837      0.66797139     1.0873088      0.32204098    -0.20610207     0.11771008     5.9798135      5.9798135      5.9798135      0              0              0              1.0288682    
    130000   0.210204       1.0342278     -5.53157       -3.9859613      1.1582216      1.6941921      0.70290506     1.0775676      0.11460946     0.28928462    -0.11026296     5.9694662      5.9694662      5.9694662      0              0              0              1.0342278    
    131000   0.19219676     1.0268746     -5.5441127     -4.6321185      0.58358267     0.91950596     0.48032504     0.35091699     0.13802946     0.23484207     0.1649498      5.9836809      5.9836809      5.9836809      0              0              0              1.0268746    
    132000   0.18238511     1.0335637     -5.5614022     -4.2194398      1.0051432      1.4326414      0.52617573     1.0566125      0.034744766    0.21548051    -0.25684091     5.9707443      5.9707443      5.9707443      0              0              0              1.0335637    
    133000   0.17337784     1.0347041     -5.5392178     -4.3102769      0.91258499     1.5560479      0.64464936     0.53705771     0.1852212      0.2675592     -0.16750872     5.96855        5.96855        5.96855        0              0              0              1.0347041    
    134000   0.15469935     1.0380344     -5.5753979     -4.1403448      1.1363309      1.6598418      0.64611392     1.103037       0.14602769     0.23830841    -0.21243407     5.9621602      5.9621602      5.9621602      0              0              0              1.0380344    
    135000   0.14976205     1.0391293     -5.5647024     -4.0199616      1.2481084      1.6472929      1.014802       1.0822303      0.24471146     0.17202457    -0.14247219     5.9600656      5.9600656      5.9600656      0              0              0              1.0391293    
    136000   0.13433024     1.0349696     -5.6000726     -4.3438387      0.99333185     1.3402733      0.9326496      0.70707263     0.46178525     0.23872452     0.064436433    5.9680396      5.9680396      5.9680396      0              0              0              1.0349696    
    137000   0.13210836     1.0394255     -5.633857      -4.5953319      0.79502197     1.305149       0.51520864     0.56470826     0.19732091     0.25712568    -0.15812097     5.9594993      5.9594993      5.9594993      0              0              0              1.0394255    
    138000   0.12684869     1.040689      -5.6354325     -4.3793333      1.0092578      1.4495892      0.81948953     0.75869458     0.23453401     0.32420472    -0.4104704      5.9570866      5.9570866      5.9570866      0              0              0              1.040689     
    139000   0.10272654     1.04387       -5.6491114     -4.3004722      1.1343259      1.5297373      0.90284239     0.97039799    -0.18466738     0.59866523    -0.42175588     5.9510292      5.9510292      5.9510292      0              0              0              1.04387      
    140000   0.10752193     1.0479421     -5.6729153     -4.3186533      1.1372892      1.5337336      0.75516568     1.1229683      0.20405682     0.5259972      0.11848871     5.9433111      5.9433111      5.9433111      0              0              0              1.0479421    
Loop time of 16.818 on 12 procs for 140000 steps with 200 atoms

Performance: 1438461.586 tau/day, 8324.430 timesteps/s
82.8% CPU use with 12 MPI tasks x 1 OpenMP threads

MPI task timing breakdown:
Section |  min time  |  avg time  |  max time  |%varavg| %total
---------------------------------------------------------------
Pair    | 3.0571     | 3.5452     | 4.0448     |  18.0 | 21.08
Bond    | 0.066061   | 0.07507    | 0.093422   |   3.3 |  0.45
Neigh   | 0.01801    | 0.018279   | 0.018426   |   0.1 |  0.11
Comm    | 10.254     | 10.758     | 11.23      |  10.4 | 63.97
Output  | 0.017567   | 0.017685   | 0.018688   |   0.2 |  0.11
Modify  | 1.6125     | 1.652      | 1.6816     |   1.6 |  9.82
Other   |            | 0.752      |            |       |  4.47

Nlocal:        16.6667 ave          18 max          15 min
Histogram: 4 0 0 0 0 0 4 0 0 4
Nghost:           2251 ave        2279 max        2222 min
Histogram: 1 1 1 1 1 3 1 1 1 1
Neighs:        5137.67 ave        6360 max        4075 min
Histogram: 2 1 2 0 1 3 0 1 0 2

Total # of neighbors = 61652
Ave neighs/atom = 308.26
Ave special neighs/atom = 10.38
Neighbor list builds = 93
Dangerous builds = 0
System init for write_data ...
Generated 0 of 1 mixed pair_coeff terms from geometric mixing rule
WARNING: Proc sub-domain size < neighbor skin, could lead to lost atoms (src/domain.cpp:970)
WARNING: Not all mixed pair coeffs generated from mixing. Use write_data with 'pair ij' option to store all pair coeffs. (src/write_data.cpp:309)
Total wall time: 0:00:16
