Generated by ZY code

200 atoms
2 atom types
219 bonds
2 bond types
0 angles
0 angle types
0 dihedrals
0 dihedral types
0 impropers
0 improper types

88.9861999999999966 112.3752133988428170 xlo xhi
97.0707000000000022 103.0140110817196586 ylo yhi
97.0341999999999985 102.9775110817196548 zlo zhi

Masses

1 1.000
2 1.500

Pair Coeffs

1 1.000000 1.000000
2 1.000000 1.000000

Bond Coeffs

1 100.000000 1.200000
2 100.000000 1.200000

Atoms # full

1 1 1 0.000000 103.755000 97.077200 102.090000 0 0 1
2 1 1 0.000000 102.737000 102.551000 101.582000 -3 4 1
3 2 1 0.000000 98.081100 100.776000 101.646000 -1 -2 1
4 2 1 0.000000 99.265800 100.915000 101.313000 -1 -2 1
5 3 1 0.000000 94.551600 99.664500 98.996600 0 0 2
6 3 1 0.000000 94.020700 98.593300 98.795200 -1 1 2
7 4 1 0.000000 102.401000 100.616000 101.347000 -1 0 -1
8 4 1 0.000000 103.638000 100.609000 101.367000 -1 0 -1
9 5 1 0.000000 95.656700 98.277400 99.670100 -1 0 0
10 5 1 0.000000 94.762800 97.774700 99.008700 -1 0 0
11 6 1 0.000000 97.116300 100.138000 100.123000 -1 -2 0
12 6 1 0.000000 98.042500 99.657100 99.518400 -1 -2 0
13 7 1 0.000000 95.105700 101.321000 97.649600 -2 -1 1
14 7 1 0.000000 94.760900 102.466000 97.585000 -2 -1 1
15 8 1 0.000000 98.242000 99.039700 101.593000 0 -1 0
16 8 1 0.000000 97.523200 99.177200 100.597000 0 -1 0
17 9 1 0.000000 100.983000 101.122000 98.659700 -1 -1 -1
18 9 1 0.000000 99.961200 100.531000 98.445600 -1 -1 -1
19 10 1 0.000000 98.659500 101.687000 101.654000 0 -1 0
20 10 1 0.000000 99.012600 100.650000 102.318000 0 -1 1
21 11 1 0.000000 102.340000 101.499000 102.113000 -1 -3 -1
22 11 1 0.000000 103.377000 100.914000 102.408000 -1 -3 -1
23 12 1 0.000000 100.179000 97.297300 101.848000 0 1 1
24 12 1 0.000000 99.609000 98.330300 101.731000 0 1 1
25 13 1 0.000000 95.446100 99.632800 100.436000 -2 -1 0
26 13 1 0.000000 96.178400 100.579000 100.502000 -1 -2 0
27 14 1 0.000000 100.259000 100.827000 100.764000 0 0 0
28 14 1 0.000000 99.259600 100.207000 100.495000 0 0 0
29 15 1 0.000000 95.391600 101.458000 99.540400 -1 1 2
30 15 1 0.000000 94.472600 100.845000 99.918400 -1 1 2
31 16 1 0.000000 94.414400 101.779000 99.206000 0 -1 -2
32 16 1 0.000000 93.826600 100.775000 98.944600 0 -1 -2
33 17 1 0.000000 98.621800 101.280000 97.099800 0 0 0
34 17 1 0.000000 99.121000 101.259000 98.212000 0 0 0
35 18 1 0.000000 99.938000 100.052000 101.412000 -1 1 1
36 18 1 0.000000 98.721000 99.975100 101.394000 -1 1 1
37 19 1 0.000000 98.820500 100.165000 97.448300 -1 1 1
38 19 1 0.000000 98.176000 99.919200 102.365000 -1 1 1
39 20 1 0.000000 99.347400 97.417900 101.090000 0 0 0
40 20 1 0.000000 98.365300 102.774000 101.454000 0 0 0
41 21 1 0.000000 105.845000 101.013000 101.209000 0 1 -1
42 21 1 0.000000 105.608000 100.805000 102.316000 2 -1 -1
43 22 1 0.000000 95.320400 101.916000 98.565100 0 3 0
44 22 1 0.000000 94.411600 102.654000 98.618100 -2 5 0
45 23 1 0.000000 99.710900 100.416000 99.473600 0 0 0
46 23 1 0.000000 100.588000 99.990100 100.206000 0 0 0
47 24 1 0.000000 99.861100 102.587000 102.611000 -2 0 1
48 24 1 0.000000 100.419000 102.578000 97.736000 -2 0 2
49 25 1 0.000000 105.083000 101.769000 102.595000 -1 -1 1
50 25 1 0.000000 105.144000 101.923000 101.424000 -1 -1 1
51 26 1 0.000000 92.957500 98.398500 98.773500 -2 -1 0
52 26 1 0.000000 93.586600 98.112100 97.822600 -2 -2 -1
53 27 1 0.000000 93.428700 102.397000 99.012500 -1 -2 0
54 27 1 0.000000 93.612200 102.772000 97.894800 0 -3 0
55 28 1 0.000000 94.629700 98.635300 99.734000 -1 -1 0
56 28 1 0.000000 95.511400 99.322700 99.425900 -1 -1 0
57 29 1 0.000000 101.263000 97.402200 101.576000 1 -1 1
58 29 1 0.000000 100.357000 97.918100 100.966000 2 -2 1
59 30 1 0.000000 99.583900 102.461000 98.469500 0 -1 0
60 30 1 0.000000 99.274900 97.070700 97.426600 0 -1 0
61 31 1 0.000000 89.198200 102.460000 100.220000 0 0 0
62 31 1 0.000000 111.283000 102.422000 100.376000 0 0 0
63 32 1 0.000000 100.948000 102.679000 102.730000 -1 -1 1
64 32 1 0.000000 101.700000 102.393000 101.848000 -1 -1 1
65 33 1 0.000000 97.674200 101.195000 99.919300 0 -2 -1
66 33 1 0.000000 98.683900 101.527000 99.338300 0 -2 -1
67 34 1 0.000000 104.221000 101.474000 100.942000 -2 0 -2
68 34 1 0.000000 103.228000 101.568000 101.602000 -2 0 -2
69 35 1 0.000000 99.382900 101.975000 97.399400 1 -2 1
70 35 1 0.000000 100.184000 101.572000 98.107600 1 -2 1
71 36 1 0.000000 98.089100 100.132000 100.569000 0 2 -2
72 36 1 0.000000 97.247900 100.862000 100.911000 0 2 -2
73 37 1 0.000000 103.532000 97.469900 101.087000 0 0 1
74 37 1 0.000000 104.822000 97.107100 101.111000 -1 1 1
75 38 1 0.000000 95.210700 98.951000 102.454000 -1 1 0
76 38 1 0.000000 96.308100 99.463800 102.029000 -1 1 0
77 39 1 0.000000 95.573400 101.198000 101.837000 0 1 0
78 39 1 0.000000 96.523200 100.522000 101.625000 0 1 0
79 40 1 0.000000 98.047200 97.990500 101.971000 0 -1 0
80 40 1 0.000000 99.136200 97.438900 102.265000 -2 0 1
81 41 1 0.000000 94.499400 97.554700 97.961500 0 0 0
82 41 1 0.000000 94.629700 98.709500 97.833400 0 0 0
83 42 1 0.000000 110.372000 101.204000 101.275000 1 0 1
84 42 1 0.000000 109.349000 100.768000 101.495000 -1 2 1
85 43 1 0.000000 107.285000 102.796000 101.655000 1 2 -1
86 43 1 0.000000 108.582000 102.836000 101.729000 1 2 -1
87 44 1 0.000000 104.196000 102.076000 101.941000 0 -1 2
88 44 1 0.000000 104.121000 101.480000 97.034200 -1 0 1
89 45 1 0.000000 109.418000 102.049000 101.262000 1 1 1
90 45 1 0.000000 110.611000 102.272000 101.255000 1 2 1
91 46 1 0.000000 101.301000 101.540000 102.364000 1 1 -1
92 46 1 0.000000 100.364000 101.006000 101.880000 1 1 -1
93 47 1 0.000000 99.929700 101.708000 101.183000 -1 0 1
94 47 1 0.000000 101.141000 101.461000 101.238000 -1 0 1
95 48 1 0.000000 94.172400 102.967000 99.608700 -1 2 0
96 48 1 0.000000 93.346700 102.501000 100.246000 -1 1 0
97 49 1 0.000000 105.516000 101.350000 100.225000 1 -1 0
98 49 1 0.000000 106.653000 101.721000 100.294000 1 -1 0
99 50 1 0.000000 94.497900 102.102000 100.214000 0 2 1
100 50 1 0.000000 95.244500 102.600000 99.411000 1 0 1
101 51 1 0.000000 109.182000 101.928000 102.276000 -1 0 -1
102 51 1 0.000000 108.366000 101.804000 101.415000 -2 0 -1
103 52 1 0.000000 108.673000 102.632000 100.568000 -1 -1 -1
104 52 1 0.000000 107.382000 102.451000 100.600000 -1 -1 -1
105 53 1 0.000000 91.545600 97.883600 102.628000 0 0 0
106 53 1 0.000000 92.819700 98.084700 102.808000 0 0 -1
107 54 1 0.000000 94.009900 101.340000 100.765000 2 -2 1
108 54 1 0.000000 92.812700 101.650000 100.578000 1 -1 1
109 55 1 0.000000 100.930000 102.129000 99.329800 -2 0 0
110 55 1 0.000000 101.815000 102.817000 99.859500 -2 1 0
111 56 1 0.000000 95.898700 102.066000 100.217000 1 0 -1
112 56 1 0.000000 95.617300 102.195000 101.384000 1 0 -1
113 57 1 0.000000 105.042000 102.312000 100.400000 -1 0 0
114 57 1 0.000000 103.983000 102.935000 100.230000 0 -1 0
115 58 1 0.000000 91.402700 102.663000 99.297700 0 0 1
116 58 1 0.000000 92.475700 97.098400 98.918100 0 1 1
117 59 1 0.000000 95.484300 100.262000 101.252000 0 0 -2
118 59 1 0.000000 96.536600 99.617300 100.975000 0 0 -2
119 60 1 0.000000 95.410900 100.414000 99.653400 0 -1 0
120 60 1 0.000000 95.526800 99.918500 98.556900 0 -1 0
121 61 1 0.000000 102.124000 102.249000 102.888000 1 0 -1
122 61 1 0.000000 103.273000 102.167000 102.525000 1 0 -1
123 62 1 0.000000 95.831800 102.175000 97.647100 -1 0 -2
124 62 1 0.000000 95.175700 101.906000 102.645000 -1 0 -2
125 63 1 0.000000 100.034000 97.281600 100.059000 -1 1 0
126 63 1 0.000000 101.154000 97.413100 100.466000 -1 1 0
127 64 1 0.000000 91.689000 102.614000 100.335000 0 -2 0
128 64 1 0.000000 92.637200 97.300900 99.960000 0 -3 0
129 65 1 0.000000 92.470800 102.121000 99.623900 -2 1 -1
130 65 1 0.000000 103.177000 101.359000 100.537000 -3 0 -1
131 66 1 0.000000 93.423300 101.998000 101.382000 1 1 0
132 66 1 0.000000 92.255600 102.317000 101.281000 0 0 0
133 67 1 0.000000 108.044000 102.175000 102.443000 1 -1 1
134 67 1 0.000000 108.994000 102.831000 102.746000 1 -1 1
135 68 1 0.000000 111.117000 97.154400 102.059000 -1 0 -1
136 68 1 0.000000 88.986200 97.376400 102.286000 1 -1 0
137 69 1 0.000000 110.450000 101.630000 100.240000 0 0 2
138 69 1 0.000000 109.231000 101.685000 100.196000 0 0 2
139 70 1 0.000000 103.709000 102.395000 101.098000 0 -1 -1
140 70 1 0.000000 103.962000 101.898000 100.058000 0 -1 -1
141 71 1 0.000000 105.078000 102.769000 102.110000 0 0 -3
142 71 1 0.000000 106.048000 102.004000 102.026000 0 1 -4
143 72 1 0.000000 95.603000 97.989100 97.484100 1 0 -1
144 72 1 0.000000 96.200200 98.403700 102.422000 2 -1 -2
145 73 1 0.000000 99.692100 100.879000 97.349000 0 0 0
146 73 1 0.000000 99.523300 101.576000 102.292000 0 0 0
147 74 1 0.000000 97.043100 102.135000 100.128000 2 -1 0
148 74 1 0.000000 96.278800 102.072000 99.182200 1 0 0
149 75 1 0.000000 100.572000 102.188000 101.841000 -1 0 -1
150 75 1 0.000000 99.398700 102.503000 101.677000 -1 0 -1
151 76 1 0.000000 101.520000 102.447000 100.826000 1 -1 -2
152 76 1 0.000000 100.254000 102.673000 100.962000 1 -1 -2
153 77 1 0.000000 97.575900 100.518000 99.067600 0 -1 0
154 77 1 0.000000 98.627600 100.550000 99.670400 0 -1 0
155 78 1 0.000000 97.779200 101.861000 100.938000 1 -2 -1
156 78 1 0.000000 96.487700 101.589000 100.945000 1 -2 -1
157 79 1 0.000000 90.434300 101.705000 100.787000 1 0 0
158 79 1 0.000000 89.289300 101.525000 101.074000 1 0 0
159 80 1 0.000000 100.094000 102.073000 100.125000 0 0 2
160 80 1 0.000000 100.637000 101.072000 99.816700 0 0 2
161 81 2 0.000000 104.503000 101.071000 101.928000 2 0 -1
162 82 2 0.000000 104.804000 100.400000 101.099000 0 -1 0
163 83 2 0.000000 97.091200 98.740800 101.657000 0 -1 0
164 84 2 0.000000 93.602100 97.536600 98.740900 0 1 1
165 85 2 0.000000 98.497800 101.133000 100.605000 1 2 0
166 86 2 0.000000 99.243900 99.437400 102.159000 1 -2 0
167 87 2 0.000000 98.813900 100.183000 98.672100 2 0 0
168 88 2 0.000000 111.493000 101.446000 101.020000 -1 1 -1
169 89 2 0.000000 94.887800 100.814000 98.717100 0 -1 1
170 90 2 0.000000 94.539300 101.708000 101.623000 1 2 -2
171 91 2 0.000000 101.188000 100.330000 101.237000 0 0 0
172 92 2 0.000000 96.463300 99.125400 100.023000 -2 0 -1
173 93 2 0.000000 97.447500 99.800200 101.563000 0 1 -1
174 94 2 0.000000 94.076900 101.671000 98.184400 0 0 -1
175 95 2 0.000000 93.497400 101.501000 99.756300 -2 3 2
176 96 2 0.000000 101.263000 101.789000 97.631400 -1 -1 -2
177 97 2 0.000000 102.251000 101.678000 100.939000 -1 0 -3
178 98 2 0.000000 100.134000 97.590900 97.054700 -1 -2 0
179 99 2 0.000000 99.852900 101.511000 99.154900 1 0 0
180 100 2 0.000000 94.037600 98.459700 102.747000 1 -1 -1
181 101 2 0.000000 106.118000 102.617000 101.029000 1 0 -1
182 102 2 0.000000 102.283000 97.346900 100.902000 0 0 1
183 103 2 0.000000 99.030800 102.148000 100.693000 1 0 0
184 104 2 0.000000 93.622700 97.960200 99.721200 2 1 2
185 105 2 0.000000 90.262500 97.604300 102.490000 2 1 -2
186 106 2 0.000000 96.522800 101.130000 99.709400 -1 -1 1
187 107 2 0.000000 90.448900 102.574000 100.049000 0 0 0
188 108 2 0.000000 100.395000 101.717000 102.915000 -1 1 0
189 109 2 0.000000 95.260800 101.300000 100.722000 1 -1 -1
190 110 2 0.000000 109.852000 102.878000 101.923000 -1 1 0
191 111 2 0.000000 98.692000 102.367000 102.515000 0 0 0
192 112 2 0.000000 102.783000 102.508000 100.410000 0 1 -1
193 113 2 0.000000 91.647500 101.526000 100.656000 1 -1 -1
194 114 2 0.000000 96.452300 100.058000 99.278600 1 1 0
195 115 2 0.000000 95.427900 97.123900 98.350100 -1 -1 1
196 116 2 0.000000 95.999400 100.914000 98.725800 -2 3 0
197 117 2 0.000000 109.993000 102.608000 100.441000 0 1 2
198 118 2 0.000000 104.329000 102.554000 97.072500 -1 1 1
199 119 2 0.000000 99.465400 101.227000 100.171000 -1 2 -2
200 120 2 0.000000 99.281100 102.430000 99.571700 -2 0 0

Velocities 

127 -0.063837 0.023393 0.186914
51 -0.219172 0.551486 0.224337
95 0.292793 0.217670 0.176572
81 -0.336841 -0.521905 0.049006
20 -0.240575 0.388605 0.562569
24 -0.041199 0.284844 -0.387011
184 -0.081757 0.183647 0.194950
38 -0.238366 0.446300 -0.162721
10 0.010295 -0.521998 0.288410
57 0.174389 0.779918 0.163668
6 0.180682 -0.150447 0.517158
82 -0.330596 0.289247 0.146481
34 0.067897 0.637628 -0.620877
56 0.232382 0.700409 -0.189729
9 0.253313 -0.274049 0.404993
143 -0.094077 0.010348 0.289170
168 0.048650 -0.232428 0.285340
172 0.197821 -0.057061 -0.318775
120 -0.380667 0.004092 0.746663
194 0.190558 0.338437 0.035868
133 -0.011953 0.133650 -0.221841
25 0.456167 -0.131639 0.423951
12 -0.161061 -0.065965 -0.666275
55 0.194925 -0.011919 -0.019066
26 -0.085399 -0.454508 -0.069174
90 -0.058931 -0.312034 0.044188
147 -0.208868 -0.150574 -0.498132
58 0.156221 0.468042 0.217566
167 -0.001937 -0.417531 -0.291774
129 -0.041365 -0.133548 0.154834
158 0.126280 -0.397527 0.416955
148 0.081709 0.487169 0.144927
99 -0.331632 -0.048046 -0.168253
131 -0.034444 0.130890 0.265150
76 0.166392 -0.198385 0.362852
75 0.166203 0.367357 0.278999
152 -0.105695 -0.306159 0.070201
173 0.019690 -0.378265 -0.577256
15 -0.294704 -0.110113 0.266164
157 0.311218 -0.011279 0.063684
144 -0.389706 -0.572403 -0.064976
16 -0.070812 -0.051278 -0.594522
163 -0.343621 -0.229621 0.153483
180 0.431161 -0.289352 -0.449093
78 -0.193575 0.628336 0.195158
118 -0.241658 -0.719115 -0.011310
79 0.321298 -0.110840 -0.339802
166 -0.565565 -0.611634 0.099072
117 -0.228343 0.333300 0.093404
193 0.166985 0.207991 -0.127582
69 -0.062430 -0.304321 -0.333483
48 -0.023711 -0.255121 -0.319367
43 0.042117 0.245595 0.487709
13 -0.019106 0.068745 0.231928
195 0.540442 0.318911 -0.411439
169 -0.246376 0.124677 -0.126419
80 0.291666 0.353120 0.132805
32 -0.300573 -0.096773 0.456031
5 0.076093 0.254303 -0.099341
30 0.453171 0.254577 0.511863
44 -0.420683 -0.318790 0.060521
125 -0.413097 -0.643087 0.079783
200 -0.188373 0.357939 0.154207
100 -0.093130 -0.449670 -0.077441
126 0.777735 -0.280714 -0.239425
116 -0.234232 -0.253820 -0.670775
2 -0.387441 -0.329534 0.201061
37 0.009851 0.267038 0.450997
164 -0.225032 -0.003153 0.226721
14 0.080300 0.111176 0.070011
66 0.075027 -0.396627 0.444850
189 0.137211 0.238375 -0.314292
175 0.050473 0.296244 -0.098148
29 0.188346 -0.243461 -0.056581
28 -0.333242 0.136701 -0.476787
162 0.110382 0.256052 0.130434
83 -0.578844 -0.420520 0.420259
154 0.124435 -0.507386 0.457918
111 0.040844 0.476539 0.022732
31 -0.237758 -0.064028 -0.080169
84 0.293267 0.153229 0.184933
186 0.076160 -0.299197 -0.179503
156 -0.510254 0.080309 -0.532434
119 -0.428828 0.003498 -0.178275
174 -0.024606 0.144793 0.202824
153 -0.393352 -0.697223 0.224881
65 0.034993 -0.103451 -0.364123
142 -0.465106 0.107622 0.360860
49 0.516585 0.055886 -0.731795
108 0.222521 0.093113 -0.044968
165 0.348143 0.070474 0.016513
102 0.333191 -0.263200 0.119730
107 -0.079664 -0.312220 -0.219056
19 -0.622083 -0.280756 -0.456830
124 -0.009617 -0.364210 0.360330
123 0.071954 0.295282 0.192613
50 0.063721 0.033438 0.230565
112 -0.173767 0.400237 -0.217004
77 0.134597 -0.149304 0.194860
170 0.381409 0.120548 0.135090
155 0.063577 -0.072239 0.014059
183 0.118135 -0.781232 0.218092
92 -0.399499 -0.239832 0.034067
136 -0.277925 -0.568958 -0.244349
33 -0.222807 -0.002840 -0.284505
128 -0.115630 0.577872 0.197390
62 0.200518 -0.277921 -0.051480
182 -0.010873 0.023717 0.580818
191 0.229567 -0.105243 -0.044396
61 0.087774 0.505919 -0.419761
96 0.401298 0.302603 -0.203800
105 -0.180067 -0.171811 -0.187972
110 -0.438862 0.773822 -0.217192
187 -0.579689 -0.381769 0.012482
23 0.554133 -0.083974 0.732843
74 0.545247 -0.050525 -0.005854
73 0.054341 0.315208 0.493220
11 -0.460375 -0.613582 -0.541583
138 0.029524 0.042778 -0.195609
46 -0.172607 0.308194 0.289722
72 0.115556 -0.823297 -0.332642
103 -0.663648 0.388845 -0.018193
151 0.197863 -0.577651 -0.627645
181 0.051411 0.165633 -0.254504
137 -0.338159 -0.293890 0.529371
45 0.203220 -0.339014 -0.325062
197 0.264700 0.257782 -0.349331
98 0.191467 0.086634 -0.166493
89 0.233428 0.709707 0.075475
97 -0.695059 0.005066 0.263363
113 -0.102999 0.417980 -0.231718
185 -0.308583 -0.098905 -0.406375
146 -0.218003 -0.125455 0.154654
71 -0.010911 -0.111218 -0.295432
52 0.044491 -0.049309 0.125496
134 -0.028268 0.392408 -0.140442
35 -0.291099 -0.293454 0.474827
101 0.025364 -0.201897 -0.059334
106 0.288207 -0.015023 0.060416
86 -0.040372 0.448122 -0.016676
85 0.107674 0.123682 0.084361
114 -0.077103 0.003549 -0.350603
149 -0.283332 -0.155396 0.112687
36 0.315535 -0.330363 0.088480
145 0.288772 -0.223366 0.101020
190 -0.034153 0.107112 0.289971
88 0.195193 0.545615 -0.186472
188 0.181689 0.017134 0.355012
104 0.426317 -0.398488 -0.287943
179 0.226672 -0.333431 0.079572
178 -0.259584 0.111715 -0.350606
198 -0.075632 0.219043 -0.225749
54 0.714287 0.065889 0.221988
87 0.302220 0.139719 0.196727
59 -0.127022 -0.056333 -0.195182
64 0.147136 0.104392 0.781393
60 0.802360 0.484497 0.297074
121 -0.459154 -0.041701 0.005966
176 -0.114128 -0.152635 -0.136531
109 -0.341059 0.396662 -0.250059
122 0.389291 0.382979 -0.079281
1 0.127809 -0.101687 -0.346832
63 -0.206929 0.313646 0.080443
91 -0.325146 -0.097902 -0.002444
141 0.148362 -0.035000 -0.238866
139 0.265285 -0.236220 0.983629
171 0.495925 0.234367 -0.004556
18 0.381625 0.513308 0.122692
53 0.159923 0.529537 0.197108
8 0.158561 0.158909 0.580984
7 -0.200407 0.331096 0.327805
115 0.774404 0.221716 -0.473104
130 -0.070750 0.023138 0.216642
17 0.121379 0.051726 -0.726938
199 0.327778 -0.171212 0.071228
140 0.199037 -0.542179 0.013881
27 -0.155844 0.535669 -0.288555
196 -0.100386 0.191468 -0.057902
160 0.246940 0.573037 0.151178
70 -0.021060 0.035729 0.719615
4 0.137033 0.153530 0.130436
192 -0.272646 -0.294325 0.122438
41 -0.359495 -0.446032 0.057823
94 -0.191820 -0.267940 -0.085819
135 0.166423 -0.145932 0.191169
39 -0.112344 -0.113711 0.087278
161 -0.350081 -0.098071 -0.124245
150 -0.517538 0.673975 -0.178442
68 -0.341484 0.256225 0.445403
159 0.150315 -0.317037 -0.424392
21 -0.083614 0.039790 0.193055
177 0.009869 -0.415171 0.018825
3 -0.292281 0.327921 -0.358600
93 0.085117 -0.024669 0.148189
42 0.098891 -0.337015 -0.032646
22 0.345821 0.531505 -0.419714
132 0.249187 -0.043861 -0.623870
40 -0.072627 0.585417 0.063810
67 -0.227560 -0.342678 -1.122101
47 0.317054 -0.447490 -0.149502

Bonds

1 1 127 128
2 1 51 52
3 1 95 96
4 1 81 82
5 2 184 6
6 2 184 51
7 2 184 55
8 2 184 128
9 1 57 58
10 1 9 10
11 1 143 144
13 2 168 83
14 2 168 158
15 2 168 90
16 2 172 9
17 2 172 11
18 2 172 16
19 2 172 25
20 2 194 153
21 2 194 56
22 2 194 119
23 1 133 134
24 1 25 26
25 1 55 56
26 1 147 148
27 2 167 12
28 2 167 34
29 2 167 37
30 2 167 45
32 1 99 100
33 1 131 132
34 1 75 76
35 2 173 36
36 2 173 71
37 2 173 76
38 2 173 78
39 1 15 16
40 1 157 158
41 2 163 79
42 2 163 118
43 2 163 144
44 2 180 52
45 2 180 75
46 2 180 82
47 2 180 106
48 1 79 80
49 2 166 15
50 2 166 20
51 2 166 24
52 2 166 38
53 1 117 118
54 2 193 108
55 2 193 157
56 2 193 132
57 1 69 70
58 1 43 44
59 1 13 14
60 2 195 100
61 2 195 143
62 2 195 123
63 2 169 5
64 2 169 13
65 2 169 31
66 2 169 43
67 1 5 6
68 1 125 126
69 2 200 125
70 1 37 38
71 2 164 10
72 2 164 44
73 2 164 81
74 2 164 116
75 2 189 26
76 2 189 107
77 2 189 117
78 2 189 156
79 2 175 30
80 2 175 53
81 2 175 99
82 2 175 129
83 1 29 30
84 2 162 8
85 2 162 41
86 2 162 67
88 1 83 84
89 1 111 112
90 1 31 32
91 2 186 29
92 2 186 65
93 2 186 111
94 2 186 147
95 1 119 120
96 2 174 14
97 2 174 32
98 2 174 54
99 1 153 154
100 1 65 66
101 1 49 50
102 2 165 3
103 2 165 19
104 2 165 28
106 1 107 108
107 1 19 20
108 1 123 124
109 1 77 78
110 2 170 77
111 2 170 112
112 2 170 124
113 2 170 131
114 1 155 156
115 2 183 152
116 2 183 155
117 2 183 159
118 1 33 34
119 2 182 57
120 2 182 73
121 2 182 110
122 2 182 126
123 2 191 33
124 2 191 47
125 2 191 60
126 2 191 69
127 1 61 62
128 1 105 106
129 2 187 61
131 2 187 115
132 2 187 127
133 1 23 24
134 1 73 74
135 1 11 12
136 1 103 104
137 1 151 152
138 2 181 74
139 2 181 85
140 2 181 104
141 2 181 113
142 1 137 138
143 1 45 46
144 2 197 62
145 2 197 89
146 2 197 103
147 2 197 138
148 1 89 90
149 1 97 98
150 1 113 114
151 2 185 105
152 2 185 136
153 1 71 72
154 1 35 36
155 1 101 102
156 1 85 86
157 1 149 150
158 1 145 146
159 2 190 86
160 2 190 101
161 2 190 135
162 2 190 134
163 2 188 145
164 2 188 149
165 2 188 92
166 2 179 18
167 2 179 59
168 2 179 66
169 2 179 109
170 2 178 23
171 2 178 48
172 2 178 63
173 2 178 80
174 2 198 87
175 2 198 1
176 2 198 141
177 2 198 122
178 1 87 88
179 1 59 60
180 1 121 122
181 2 176 17
182 2 176 70
183 2 176 91
184 2 176 121
185 1 109 110
186 1 1 2
187 1 63 64
188 1 91 92
189 1 141 142
190 1 139 140
191 2 171 7
192 2 171 27
193 2 171 35
194 2 171 46
195 1 53 54
196 1 7 8
197 1 115 116
198 1 17 18
199 2 199 4
200 2 199 160
201 2 199 93
202 2 199 154
203 1 27 28
204 2 192 114
205 2 192 130
206 2 192 139
207 2 192 151
208 1 41 42
209 1 135 136
210 1 39 40
211 2 161 22
212 2 161 42
213 2 161 50
214 2 161 88
215 1 159 160
216 1 21 22
217 2 177 2
218 2 177 21
219 2 177 68
220 2 177 94
221 1 3 4
222 1 93 94
223 1 67 68
224 1 47 48

