Generated by ZY code

200 atoms
2 atom types
223 bonds
2 bond types
0 angles
0 angle types
0 dihedrals
0 dihedral types
0 impropers
0 improper types

92.2450000000000045 107.7671245925837695 xlo xhi
97.0978999999999957 103.0412110817196520 ylo yhi
97.0430999999999955 102.9864110817196519 zlo zhi

Masses

1 1.000
2 1.500

Pair Coeffs

1 1.000000 1.000000
2 1.000000 1.000000

Bond Coeffs

1 100.000000 1.200000
2 100.000000 1.200000

Atoms # full

1 1 1 0.000000 105.868000 101.875000 98.049600 0 0 1
2 1 1 0.000000 104.962000 101.592000 97.293800 -3 4 1
3 2 1 0.000000 98.531100 100.354000 102.369000 -1 -2 1
4 2 1 0.000000 99.374000 101.126000 101.962000 -1 -2 1
5 3 1 0.000000 95.901800 99.461800 98.424900 0 0 2
6 3 1 0.000000 94.899500 98.980600 97.993900 -1 1 2
7 4 1 0.000000 102.530000 101.225000 100.897000 -1 0 -1
8 4 1 0.000000 103.882000 101.428000 101.021000 -1 0 -1
9 5 1 0.000000 96.112300 98.036500 99.333100 -1 0 0
10 5 1 0.000000 95.032100 97.527900 98.935500 -1 0 0
11 6 1 0.000000 97.319700 99.031100 99.161100 -1 -2 0
12 6 1 0.000000 96.917300 100.078000 98.790200 -1 -2 0
13 7 1 0.000000 97.132200 101.167000 98.800000 -2 -1 1
14 7 1 0.000000 96.468000 101.476000 97.899700 -2 -1 1
15 8 1 0.000000 98.868000 98.578000 101.709000 0 -1 0
16 8 1 0.000000 98.020200 98.600600 100.787000 0 -1 0
17 9 1 0.000000 101.263000 102.232000 98.826600 -1 -1 -1
18 9 1 0.000000 101.017000 101.217000 99.373500 -1 -1 -1
19 10 1 0.000000 98.402000 101.164000 97.129700 0 -1 0
20 10 1 0.000000 98.913500 100.020000 97.352600 0 -1 1
21 11 1 0.000000 105.746000 101.614000 102.383000 -1 -3 -1
22 11 1 0.000000 107.125000 101.596000 102.463000 -1 -3 -1
23 12 1 0.000000 101.321000 97.800600 97.941900 0 1 1
24 12 1 0.000000 100.428000 98.390800 97.340800 0 1 1
25 13 1 0.000000 96.827300 99.290500 100.422000 -2 -1 0
26 13 1 0.000000 97.858200 99.785600 100.743000 -1 -2 0
27 14 1 0.000000 99.954800 100.496000 101.241000 0 0 0
28 14 1 0.000000 98.681600 100.720000 101.292000 0 0 0
29 15 1 0.000000 95.436500 101.828000 99.920000 -1 1 2
30 15 1 0.000000 94.268200 101.802000 99.585700 -1 1 2
31 16 1 0.000000 95.116800 101.152000 99.042100 0 -1 -2
32 16 1 0.000000 94.724900 101.055000 97.899300 0 -1 -2
33 17 1 0.000000 98.419700 100.941000 98.158600 0 0 0
34 17 1 0.000000 98.749600 99.798800 98.422400 0 0 0
35 18 1 0.000000 100.645000 100.449000 102.039000 -1 1 1
36 18 1 0.000000 99.496700 100.130000 102.335000 -1 1 1
37 19 1 0.000000 97.705700 99.634000 98.332300 -1 1 1
38 19 1 0.000000 98.484900 98.993500 97.625700 -1 1 1
39 20 1 0.000000 98.556700 102.814000 102.407000 0 0 0
40 20 1 0.000000 99.192300 101.907000 102.803000 0 0 0
41 21 1 0.000000 106.357000 101.679000 101.519000 0 1 -1
42 21 1 0.000000 107.571000 101.926000 101.536000 2 -1 -1
43 22 1 0.000000 95.477400 101.716000 98.228700 0 3 0
44 22 1 0.000000 94.348600 102.003000 98.516200 -2 5 0
45 23 1 0.000000 99.213500 100.646000 99.592400 0 0 0
46 23 1 0.000000 100.317000 100.459000 100.117000 0 0 0
47 24 1 0.000000 99.878700 102.471000 97.548900 -2 0 1
48 24 1 0.000000 101.091000 102.690000 97.849300 -2 0 2
49 25 1 0.000000 95.362000 101.327000 102.191000 -1 -1 1
50 25 1 0.000000 94.199300 101.535000 102.400000 -1 -1 1
51 26 1 0.000000 94.875500 97.842800 97.912500 -2 -1 0
52 26 1 0.000000 95.869000 98.462100 97.684200 -2 -2 -1
53 27 1 0.000000 93.397300 102.258000 98.094500 -1 -2 0
54 27 1 0.000000 94.370400 102.024000 97.388700 0 -3 0
55 28 1 0.000000 95.303500 98.693600 98.983600 -1 -1 0
56 28 1 0.000000 96.293400 99.424300 99.439800 -1 -1 0
57 29 1 0.000000 96.168300 102.934000 99.535900 1 -1 1
58 29 1 0.000000 94.882500 102.843000 99.964400 2 -2 1
59 30 1 0.000000 99.148200 101.543000 98.716100 0 -1 0
60 30 1 0.000000 100.257000 101.979000 98.398100 0 -1 0
61 31 1 0.000000 106.360000 97.584000 98.965400 0 0 0
62 31 1 0.000000 105.264000 97.848700 98.522600 0 0 0
63 32 1 0.000000 103.464000 97.198600 97.481900 -1 -1 1
64 32 1 0.000000 104.731000 97.250100 97.749700 -1 -1 1
65 33 1 0.000000 97.816300 102.275000 99.768800 0 -2 -1
66 33 1 0.000000 98.903000 101.785000 99.727600 0 -2 -1
67 34 1 0.000000 104.827000 102.585000 100.192000 -2 0 -2
68 34 1 0.000000 104.411000 102.362000 101.256000 -2 0 -2
69 35 1 0.000000 100.112000 100.899000 98.645000 1 -2 1
70 35 1 0.000000 101.197000 101.271000 98.282700 1 -2 1
71 36 1 0.000000 99.670300 99.224200 101.839000 0 2 -2
72 36 1 0.000000 98.692800 99.674600 101.480000 0 2 -2
73 37 1 0.000000 98.790600 97.097900 99.428300 0 0 1
74 37 1 0.000000 100.188000 97.127100 99.446200 -1 1 1
75 38 1 0.000000 96.699200 97.874000 97.184700 -1 1 0
76 38 1 0.000000 97.632400 98.678400 97.080800 -1 1 0
77 39 1 0.000000 97.409900 101.131000 97.614600 0 1 0
78 39 1 0.000000 97.761500 100.014000 97.219500 0 1 0
79 40 1 0.000000 99.758300 97.686200 102.813000 0 -1 0
80 40 1 0.000000 100.989000 97.399200 102.959000 -2 0 1
81 41 1 0.000000 95.104800 102.728000 98.009000 0 0 0
82 41 1 0.000000 95.958300 97.570300 98.364900 0 0 0
83 42 1 0.000000 92.278000 102.098000 100.408000 1 0 1
84 42 1 0.000000 106.497000 101.954000 100.483000 -1 2 1
85 43 1 0.000000 102.262000 102.830000 100.405000 1 2 -1
86 43 1 0.000000 103.193000 102.268000 100.992000 1 2 -1
87 44 1 0.000000 106.597000 102.158000 97.236400 0 -1 2
88 44 1 0.000000 92.301600 102.043000 97.330800 -1 0 1
89 45 1 0.000000 106.674000 102.886000 99.800700 1 1 1
90 45 1 0.000000 92.407600 102.884000 99.752600 1 2 1
91 46 1 0.000000 101.526000 102.332000 102.779000 1 1 -1
92 46 1 0.000000 101.692000 101.274000 97.290500 1 1 -1
93 47 1 0.000000 101.805000 101.403000 101.659000 -1 0 1
94 47 1 0.000000 103.134000 101.514000 101.881000 -1 0 1
95 48 1 0.000000 93.103900 97.196200 98.883900 -1 2 0
96 48 1 0.000000 107.435000 97.260700 98.848700 -1 1 0
97 49 1 0.000000 106.588000 102.535000 98.554800 1 -1 0
98 49 1 0.000000 92.245000 102.282000 98.449300 1 -1 0
99 50 1 0.000000 94.102800 102.789000 99.218500 0 2 1
100 50 1 0.000000 95.258700 102.382000 99.022500 1 0 1
101 51 1 0.000000 103.713000 101.513000 102.935000 -1 0 -1
102 51 1 0.000000 102.715000 102.201000 102.834000 -2 0 -1
103 52 1 0.000000 104.165000 97.299300 99.416600 -1 -1 -1
104 52 1 0.000000 102.875000 97.187100 99.524700 -1 -1 -1
105 53 1 0.000000 93.107900 102.691000 102.797000 0 0 0
106 53 1 0.000000 94.348700 97.102100 97.093400 0 0 -1
107 54 1 0.000000 97.374200 101.284000 99.888600 2 -2 1
108 54 1 0.000000 96.325300 101.320000 100.515000 1 -1 1
109 55 1 0.000000 99.405300 102.578000 98.644600 -2 0 0
110 55 1 0.000000 98.207400 102.584000 98.696800 -2 1 0
111 56 1 0.000000 97.405700 102.049000 100.770000 1 0 -1
112 56 1 0.000000 97.786400 102.095000 101.850000 1 0 -1
113 57 1 0.000000 102.480000 102.796000 98.612100 -1 0 0
114 57 1 0.000000 103.680000 102.885000 98.546500 0 -1 0
115 58 1 0.000000 107.195000 102.871000 97.772100 0 0 1
116 58 1 0.000000 92.852300 97.158500 97.852900 0 1 1
117 59 1 0.000000 97.679600 99.986900 101.728000 0 0 -2
118 59 1 0.000000 97.832300 98.793300 101.888000 0 0 -2
119 60 1 0.000000 96.782300 100.415000 100.711000 0 -1 0
120 60 1 0.000000 96.457600 100.702000 99.567200 0 -1 0
121 61 1 0.000000 103.255000 102.134000 97.832000 1 0 -1
122 61 1 0.000000 104.262000 102.432000 97.128100 1 0 -1
123 62 1 0.000000 97.342000 102.181000 97.975000 -1 0 -2
124 62 1 0.000000 98.575200 102.023000 97.889100 -1 0 -2
125 63 1 0.000000 97.093600 102.251000 98.977400 -1 1 0
126 63 1 0.000000 97.076300 97.255700 98.179400 -1 1 0
127 64 1 0.000000 107.125000 97.975000 98.071300 0 -2 0
128 64 1 0.000000 92.859400 98.126100 98.359500 0 -3 0
129 65 1 0.000000 107.258000 102.074000 99.390800 -2 1 -1
130 65 1 0.000000 105.912000 102.196000 99.353800 -3 0 -1
131 66 1 0.000000 96.716500 101.516000 102.708000 1 1 0
132 66 1 0.000000 95.970900 102.389000 102.221000 0 0 0
133 67 1 0.000000 101.268000 102.355000 101.634000 1 -1 1
134 67 1 0.000000 102.506000 102.367000 101.769000 1 -1 1
135 68 1 0.000000 104.974000 102.489000 102.189000 -1 0 -1
136 68 1 0.000000 106.212000 102.585000 102.153000 1 -1 0
137 69 1 0.000000 104.311000 102.085000 98.151100 0 0 2
138 69 1 0.000000 105.284000 102.680000 98.492700 0 0 2
139 70 1 0.000000 103.740000 102.567000 100.104000 0 -1 -1
140 70 1 0.000000 104.264000 101.505000 99.990100 0 -1 -1
141 71 1 0.000000 106.551000 97.323900 102.894000 0 0 -3
142 71 1 0.000000 107.657000 97.699500 97.186700 0 1 -4
143 72 1 0.000000 96.705900 102.633000 97.245100 1 0 -1
144 72 1 0.000000 97.717900 97.392300 97.209000 2 -1 -2
145 73 1 0.000000 99.973100 101.031000 102.816000 0 0 0
146 73 1 0.000000 101.027000 101.435000 102.399000 0 0 0
147 74 1 0.000000 97.068800 97.119000 100.345000 2 -1 0
148 74 1 0.000000 95.994700 102.559000 100.568000 1 0 0
149 75 1 0.000000 100.216000 102.205000 102.365000 -1 0 -1
150 75 1 0.000000 99.464700 102.006000 101.440000 -1 0 -1
151 76 1 0.000000 103.310000 102.152000 99.229900 1 -1 -2
152 76 1 0.000000 102.129000 102.193000 99.536800 1 -1 -2
153 77 1 0.000000 98.340900 100.680000 100.237000 0 -1 0
154 77 1 0.000000 99.494700 101.154000 100.599000 0 -1 0
155 78 1 0.000000 99.746200 102.239000 100.418000 1 -2 -1
156 78 1 0.000000 98.598600 101.763000 100.779000 1 -2 -1
157 79 1 0.000000 95.549200 101.789000 101.214000 1 0 0
158 79 1 0.000000 94.564700 102.065000 100.632000 1 0 0
159 80 1 0.000000 101.628000 101.873000 100.657000 0 0 2
160 80 1 0.000000 100.531000 101.472000 100.309000 0 0 2
161 81 2 0.000000 92.947000 101.657000 102.363000 2 0 -1
162 82 2 0.000000 105.242000 101.732000 100.909000 0 -1 0
163 83 2 0.000000 98.600400 98.105000 102.669000 0 -1 0
164 84 2 0.000000 94.014200 97.216800 98.247300 0 1 1
165 85 2 0.000000 97.701300 101.023000 102.070000 1 2 0
166 86 2 0.000000 99.410000 98.893200 102.834000 1 -2 0
167 87 2 0.000000 98.045800 100.471000 99.115900 2 0 0
168 88 2 0.000000 93.561300 102.548000 100.136000 -1 1 -1
169 89 2 0.000000 96.081200 100.683000 98.536700 0 -1 1
170 90 2 0.000000 97.756600 102.148000 97.043100 1 2 -2
171 91 2 0.000000 101.212000 100.784000 100.969000 0 0 0
172 92 2 0.000000 97.137500 98.175600 100.027000 -2 0 -1
173 93 2 0.000000 98.531400 99.345800 102.481000 0 1 -1
174 94 2 0.000000 95.486800 101.725000 97.202500 0 0 -1
175 95 2 0.000000 93.060900 102.133000 99.271200 -2 3 2
176 96 2 0.000000 102.049000 102.084000 97.911300 -1 -1 -2
177 97 2 0.000000 104.446000 101.546000 102.121000 -1 0 -3
178 98 2 0.000000 102.172000 97.152400 97.379200 -1 -2 0
179 99 2 0.000000 100.015000 101.859000 99.423900 1 0 0
180 100 2 0.000000 95.579400 97.395100 97.214400 1 -1 -1
181 101 2 0.000000 101.563000 97.162800 99.404000 1 0 -1
182 102 2 0.000000 97.464300 97.277100 99.347300 0 0 1
183 103 2 0.000000 100.927000 102.364000 99.868400 1 0 0
184 104 2 0.000000 94.103000 98.329900 98.684400 2 1 2
185 105 2 0.000000 107.390000 102.692000 102.504000 2 1 -2
186 106 2 0.000000 96.641000 102.070000 99.862200 -1 -1 1
187 107 2 0.000000 106.025000 97.342500 97.880100 0 0 0
188 108 2 0.000000 100.676000 101.816000 97.442700 -1 1 0
189 109 2 0.000000 97.598700 100.979000 101.000000 1 -1 -1
190 110 2 0.000000 103.709000 102.395000 102.092000 -1 1 0
191 111 2 0.000000 99.431100 101.365000 97.728300 0 0 0
192 112 2 0.000000 104.579000 102.272000 99.207500 0 1 -1
193 113 2 0.000000 96.708100 101.597000 101.597000 1 -1 -1
194 114 2 0.000000 97.339400 100.023000 99.782000 1 1 0
195 115 2 0.000000 96.233000 102.471000 98.340000 -1 -1 1
196 116 2 0.000000 96.129200 101.624000 99.056800 -2 3 0
197 117 2 0.000000 105.437000 97.228900 99.555600 0 1 2
198 118 2 0.000000 105.499000 102.624000 97.195700 -1 1 1
199 119 2 0.000000 100.458000 101.392000 101.462000 -1 2 -2
200 120 2 0.000000 98.101000 101.572000 99.018700 -2 0 0

Velocities 

127 -0.063837 0.023393 0.186914
51 -0.219172 0.551486 0.224337
95 0.292793 0.217670 0.176572
81 -0.336841 -0.521905 0.049006
20 -0.240575 0.388605 0.562569
24 -0.041199 0.284844 -0.387011
184 -0.081757 0.183647 0.194950
38 -0.238366 0.446300 -0.162721
10 0.010295 -0.521998 0.288410
57 0.174389 0.779918 0.163668
6 0.180682 -0.150447 0.517158
82 -0.330596 0.289247 0.146481
34 0.067897 0.637628 -0.620877
56 0.232382 0.700409 -0.189729
9 0.253313 -0.274049 0.404993
143 -0.094077 0.010348 0.289170
168 0.048650 -0.232428 0.285340
172 0.197821 -0.057061 -0.318775
120 -0.380667 0.004092 0.746663
194 0.190558 0.338437 0.035868
133 -0.011953 0.133650 -0.221841
25 0.456167 -0.131639 0.423951
12 -0.161061 -0.065965 -0.666275
55 0.194925 -0.011919 -0.019066
26 -0.085399 -0.454508 -0.069174
90 -0.058931 -0.312034 0.044188
147 -0.208868 -0.150574 -0.498132
58 0.156221 0.468042 0.217566
167 -0.001937 -0.417531 -0.291774
129 -0.041365 -0.133548 0.154834
158 0.126280 -0.397527 0.416955
148 0.081709 0.487169 0.144927
99 -0.331632 -0.048046 -0.168253
131 -0.034444 0.130890 0.265150
76 0.166392 -0.198385 0.362852
75 0.166203 0.367357 0.278999
152 -0.105695 -0.306159 0.070201
173 0.019690 -0.378265 -0.577256
15 -0.294704 -0.110113 0.266164
157 0.311218 -0.011279 0.063684
144 -0.389706 -0.572403 -0.064976
16 -0.070812 -0.051278 -0.594522
163 -0.343621 -0.229621 0.153483
180 0.431161 -0.289352 -0.449093
78 -0.193575 0.628336 0.195158
118 -0.241658 -0.719115 -0.011310
79 0.321298 -0.110840 -0.339802
166 -0.565565 -0.611634 0.099072
117 -0.228343 0.333300 0.093404
193 0.166985 0.207991 -0.127582
69 -0.062430 -0.304321 -0.333483
48 -0.023711 -0.255121 -0.319367
43 0.042117 0.245595 0.487709
13 -0.019106 0.068745 0.231928
195 0.540442 0.318911 -0.411439
169 -0.246376 0.124677 -0.126419
80 0.291666 0.353120 0.132805
32 -0.300573 -0.096773 0.456031
5 0.076093 0.254303 -0.099341
30 0.453171 0.254577 0.511863
44 -0.420683 -0.318790 0.060521
125 -0.413097 -0.643087 0.079783
200 -0.188373 0.357939 0.154207
100 -0.093130 -0.449670 -0.077441
126 0.777735 -0.280714 -0.239425
116 -0.234232 -0.253820 -0.670775
2 -0.387441 -0.329534 0.201061
37 0.009851 0.267038 0.450997
164 -0.225032 -0.003153 0.226721
14 0.080300 0.111176 0.070011
66 0.075027 -0.396627 0.444850
189 0.137211 0.238375 -0.314292
175 0.050473 0.296244 -0.098148
29 0.188346 -0.243461 -0.056581
28 -0.333242 0.136701 -0.476787
162 0.110382 0.256052 0.130434
83 -0.578844 -0.420520 0.420259
154 0.124435 -0.507386 0.457918
111 0.040844 0.476539 0.022732
31 -0.237758 -0.064028 -0.080169
84 0.293267 0.153229 0.184933
186 0.076160 -0.299197 -0.179503
156 -0.510254 0.080309 -0.532434
119 -0.428828 0.003498 -0.178275
174 -0.024606 0.144793 0.202824
153 -0.393352 -0.697223 0.224881
65 0.034993 -0.103451 -0.364123
142 -0.465106 0.107622 0.360860
49 0.516585 0.055886 -0.731795
108 0.222521 0.093113 -0.044968
165 0.348143 0.070474 0.016513
102 0.333191 -0.263200 0.119730
107 -0.079664 -0.312220 -0.219056
19 -0.622083 -0.280756 -0.456830
124 -0.009617 -0.364210 0.360330
123 0.071954 0.295282 0.192613
50 0.063721 0.033438 0.230565
112 -0.173767 0.400237 -0.217004
77 0.134597 -0.149304 0.194860
170 0.381409 0.120548 0.135090
155 0.063577 -0.072239 0.014059
183 0.118135 -0.781232 0.218092
92 -0.399499 -0.239832 0.034067
136 -0.277925 -0.568958 -0.244349
33 -0.222807 -0.002840 -0.284505
128 -0.115630 0.577872 0.197390
62 0.200518 -0.277921 -0.051480
182 -0.010873 0.023717 0.580818
191 0.229567 -0.105243 -0.044396
61 0.087774 0.505919 -0.419761
96 0.401298 0.302603 -0.203800
105 -0.180067 -0.171811 -0.187972
110 -0.438862 0.773822 -0.217192
187 -0.579689 -0.381769 0.012482
23 0.554133 -0.083974 0.732843
74 0.545247 -0.050525 -0.005854
73 0.054341 0.315208 0.493220
11 -0.460375 -0.613582 -0.541583
138 0.029524 0.042778 -0.195609
46 -0.172607 0.308194 0.289722
72 0.115556 -0.823297 -0.332642
103 -0.663648 0.388845 -0.018193
151 0.197863 -0.577651 -0.627645
181 0.051411 0.165633 -0.254504
137 -0.338159 -0.293890 0.529371
45 0.203220 -0.339014 -0.325062
197 0.264700 0.257782 -0.349331
98 0.191467 0.086634 -0.166493
89 0.233428 0.709707 0.075475
97 -0.695059 0.005066 0.263363
113 -0.102999 0.417980 -0.231718
185 -0.308583 -0.098905 -0.406375
146 -0.218003 -0.125455 0.154654
71 -0.010911 -0.111218 -0.295432
52 0.044491 -0.049309 0.125496
134 -0.028268 0.392408 -0.140442
35 -0.291099 -0.293454 0.474827
101 0.025364 -0.201897 -0.059334
106 0.288207 -0.015023 0.060416
86 -0.040372 0.448122 -0.016676
85 0.107674 0.123682 0.084361
114 -0.077103 0.003549 -0.350603
149 -0.283332 -0.155396 0.112687
36 0.315535 -0.330363 0.088480
145 0.288772 -0.223366 0.101020
190 -0.034153 0.107112 0.289971
88 0.195193 0.545615 -0.186472
188 0.181689 0.017134 0.355012
104 0.426317 -0.398488 -0.287943
179 0.226672 -0.333431 0.079572
178 -0.259584 0.111715 -0.350606
198 -0.075632 0.219043 -0.225749
54 0.714287 0.065889 0.221988
87 0.302220 0.139719 0.196727
59 -0.127022 -0.056333 -0.195182
64 0.147136 0.104392 0.781393
60 0.802360 0.484497 0.297074
121 -0.459154 -0.041701 0.005966
176 -0.114128 -0.152635 -0.136531
109 -0.341059 0.396662 -0.250059
122 0.389291 0.382979 -0.079281
1 0.127809 -0.101687 -0.346832
63 -0.206929 0.313646 0.080443
91 -0.325146 -0.097902 -0.002444
141 0.148362 -0.035000 -0.238866
139 0.265285 -0.236220 0.983629
171 0.495925 0.234367 -0.004556
18 0.381625 0.513308 0.122692
53 0.159923 0.529537 0.197108
8 0.158561 0.158909 0.580984
7 -0.200407 0.331096 0.327805
115 0.774404 0.221716 -0.473104
130 -0.070750 0.023138 0.216642
17 0.121379 0.051726 -0.726938
199 0.327778 -0.171212 0.071228
140 0.199037 -0.542179 0.013881
27 -0.155844 0.535669 -0.288555
196 -0.100386 0.191468 -0.057902
160 0.246940 0.573037 0.151178
70 -0.021060 0.035729 0.719615
4 0.137033 0.153530 0.130436
192 -0.272646 -0.294325 0.122438
41 -0.359495 -0.446032 0.057823
94 -0.191820 -0.267940 -0.085819
135 0.166423 -0.145932 0.191169
39 -0.112344 -0.113711 0.087278
161 -0.350081 -0.098071 -0.124245
150 -0.517538 0.673975 -0.178442
68 -0.341484 0.256225 0.445403
159 0.150315 -0.317037 -0.424392
21 -0.083614 0.039790 0.193055
177 0.009869 -0.415171 0.018825
3 -0.292281 0.327921 -0.358600
93 0.085117 -0.024669 0.148189
42 0.098891 -0.337015 -0.032646
22 0.345821 0.531505 -0.419714
132 0.249187 -0.043861 -0.623870
40 -0.072627 0.585417 0.063810
67 -0.227560 -0.342678 -1.122101
47 0.317054 -0.447490 -0.149502

Bonds

1 1 127 128
2 1 51 52
3 1 95 96
4 1 81 82
5 2 184 6
6 2 184 51
7 2 184 55
8 2 184 128
9 1 57 58
10 1 9 10
11 1 143 144
12 2 168 58
13 2 168 83
14 2 168 158
15 2 168 90
16 2 172 9
17 2 172 11
18 2 172 16
19 2 172 25
20 2 194 153
21 2 194 56
22 2 194 119
23 1 133 134
24 1 25 26
25 1 55 56
26 1 147 148
27 2 167 12
28 2 167 34
29 2 167 37
30 2 167 45
31 1 129 130
32 1 99 100
33 1 131 132
34 1 75 76
35 2 173 36
36 2 173 71
37 2 173 76
38 2 173 78
39 1 15 16
40 1 157 158
41 2 163 79
42 2 163 118
43 2 163 144
44 2 180 52
45 2 180 75
46 2 180 82
47 2 180 106
48 1 79 80
49 2 166 15
50 2 166 20
51 2 166 24
52 2 166 38
53 1 117 118
54 2 193 108
55 2 193 157
56 2 193 132
57 1 69 70
58 1 43 44
59 1 13 14
60 2 195 100
61 2 195 143
62 2 195 123
63 2 169 5
64 2 169 13
65 2 169 31
66 2 169 43
67 1 5 6
68 1 125 126
69 2 200 125
70 1 37 38
71 2 164 10
72 2 164 44
73 2 164 81
74 2 164 116
75 2 189 26
76 2 189 107
77 2 189 117
78 2 189 156
79 2 175 30
80 2 175 53
81 2 175 99
82 2 175 129
83 1 29 30
84 2 162 8
85 2 162 41
86 2 162 67
87 2 162 84
88 1 83 84
89 1 111 112
90 1 31 32
91 2 186 29
92 2 186 65
93 2 186 111
94 2 186 147
95 1 119 120
96 2 174 14
97 2 174 32
98 2 174 54
99 1 153 154
100 1 65 66
101 1 49 50
102 2 165 3
103 2 165 19
104 2 165 28
106 1 107 108
107 1 19 20
108 1 123 124
109 1 77 78
110 2 170 77
111 2 170 112
112 2 170 124
113 2 170 131
114 1 155 156
115 2 183 152
116 2 183 155
117 2 183 159
118 1 33 34
119 2 182 57
120 2 182 73
121 2 182 110
122 2 182 126
123 2 191 33
124 2 191 47
125 2 191 60
126 2 191 69
127 1 61 62
128 1 105 106
129 2 187 61
130 2 187 64
131 2 187 115
132 2 187 127
133 1 23 24
134 1 73 74
135 1 11 12
136 1 103 104
137 1 151 152
138 2 181 74
139 2 181 85
140 2 181 104
141 2 181 113
142 1 137 138
143 1 45 46
144 2 197 62
145 2 197 89
146 2 197 103
147 2 197 138
148 1 89 90
149 1 97 98
150 1 113 114
151 2 185 105
152 2 185 136
153 1 71 72
154 1 35 36
155 1 101 102
156 1 85 86
157 1 149 150
158 1 145 146
159 2 190 86
160 2 190 101
161 2 190 135
162 2 190 134
163 2 188 145
164 2 188 149
165 2 188 92
166 2 179 18
167 2 179 59
168 2 179 66
169 2 179 109
170 2 178 23
171 2 178 48
172 2 178 63
173 2 178 80
174 2 198 87
175 2 198 1
176 2 198 141
177 2 198 122
178 1 87 88
179 1 59 60
180 1 121 122
181 2 176 17
182 2 176 70
183 2 176 91
184 2 176 121
185 1 109 110
186 1 1 2
187 1 63 64
188 1 91 92
189 1 141 142
190 1 139 140
191 2 171 7
192 2 171 27
193 2 171 35
194 2 171 46
195 1 53 54
196 1 7 8
197 1 115 116
198 1 17 18
199 2 199 4
200 2 199 160
201 2 199 93
202 2 199 154
203 1 27 28
204 2 192 114
205 2 192 130
206 2 192 139
207 2 192 151
208 1 41 42
209 1 135 136
210 1 39 40
211 2 161 22
212 2 161 42
213 2 161 50
214 2 161 88
215 1 159 160
216 1 21 22
217 2 177 2
218 2 177 21
219 2 177 68
220 2 177 94
221 1 3 4
222 1 93 94
223 1 67 68
224 1 47 48

