LAMMPS (23 Jun 2022)
OMP_NUM_THREADS environment is not set. Defaulting to 1 thread. (src/comm.cpp:98)
  using 1 OpenMP thread(s) per MPI task
Reading data file ...
  orthogonal box = (0 0 0) to (200 200 200)
  1 by 1 by 1 MPI processor grid
  reading atoms ...
  200 atoms
  scanning bonds ...
  1 = max bonds/atom
  reading bonds ...
  80 bonds
Finding 1-2 1-3 1-4 neighbors ...
  special bond factors lj:    0        0        0       
  special bond factors coul:  0        0        0       
     1 = max # of 1-2 neighbors
     0 = max # of 1-3 neighbors
     0 = max # of 1-4 neighbors
     1 = max # of special neighbors
  special bonds CPU = 0.000 seconds
  read_data CPU = 0.008 seconds
Generated 0 of 1 mixed pair_coeff terms from geometric mixing rule
Neighbor list info ...
  update every 1 steps, delay 0 steps, check yes
  max neighbors/atom: 2000, page size: 100000
  master list distance cutoff = 5.5
  ghost atom cutoff = 5.5
  binsize = 2.75, bins = 73 73 73
  1 neighbor lists, perpetual/occasional/extra = 1 0 0
  (1) pair lj/cut, perpetual
      attributes: half, newton on
      pair build: half/bin/newton
      stencil: half/bin/3d
      bin: standard
Setting up Verlet run ...
  Unit style    : lj
  Current step  : 0
  Time step     : 0.002
Per MPI rank memory allocation (min/avg/max) = 7.938 | 7.938 | 7.938 Mbytes
   Step          Temp         Density         PotEng        Enthalpy        Press           Pxx            Pyy            Pzz            Pxy            Pxz            Pyz             Lx             Ly             Lz             Xy             Yz             Xz          Density    
         0   1              2.75e-05       2.2913944e-28  2.4875         2.4875e-05     2.4540872e-05  2.7057051e-05  2.3027077e-05 -8.5634887e-07  1.0219777e-06  4.891355e-07   200            200            200            0              0              0              2.75e-05     
       100   2.5460692      0.00020837979  4.84198       -3.056329      -0.0022160845  -0.0064438455  -9.1411273e-05 -0.00011299676 -0.00011418486  0.00013728392 -2.0090717e-05  101.8253       101.8253       101.8253       0              0              0              0.00020837979
       200   4.2640173      0.00048094567  1.6515352      17.205317      0.0040179672   0.0058416615   0.0033636118   0.0028486284  -4.2624545e-05 -8.577244e-05   7.8886212e-05  77.050516      77.050516      77.050516      0              0              0              0.00048094567
       300   3.4109398      0.00083253532  0.10441452     9.156491       0.0029980724   0.0036044164   0.0028719584   0.0025178425  -3.4032189e-05 -8.0698972e-05  5.233082e-05   64.171177      64.171177      64.171177      0              0              0              0.00083253532
       400   2.6552059      0.0012518399   1.5398951      0.88016203    -0.0052607182  -0.0047319373  -0.0058799371  -0.0051702803  -0.00041501165 -0.00027537954 -0.00021198168  56.013317      56.013317      56.013317      0              0              0              0.0012518399 
       500   1.8151474      0.0017357826   1.6597927      11.417977      0.011123332    0.010038299    0.012943983    0.010387714   -0.00051069168  0.0006509691   0.00020298644  50.231458      50.231458      50.231458      0              0              0              0.0017357826 
       600   1.8894596      0.0022799996   0.35030573     2.2697042     -0.0018667391  -0.0020808919  -0.0023635316  -0.0011557937   0.00014714035 -0.00044972344 -0.00014177473  45.866539      45.866539      45.866539      0              0              0              0.0022799996 
       700   2.0035492      0.0028743966   0.25645116     2.6395358     -0.0015866999  -0.00076473871 -0.0019211665  -0.0020741944  -0.0003882829  -0.00044659566  8.0438351e-05  42.457915      42.457915      42.457915      0              0              0              0.0028743966 
       800   1.0087066      0.0035283525   0.97464625     7.783681       0.017011599    0.016091754    0.019647134    0.015295909   -0.0012828287   0.0012993809   6.4704787e-05  39.653687      39.653687      39.653687      0              0              0              0.0035283525 
       900   0.95389299     0.004228735    0.68668816    -1.2606306     -0.012959166   -0.013268193   -0.015457453   -0.010151853    0.001028046   -0.00169158    -0.00033673711  37.331096      37.331096      37.331096      0              0              0              0.004228735  
      1000   1.4274126      0.0049740664   0.050684856    3.9345691      0.0079289829   0.0074217712   0.0095641621   0.0068010153  -0.00086098632  0.00048547823  0.00010880968  35.364732      35.364732      35.364732      0              0              0              0.0049740664 
      1100   0.91495962     0.0057766768   0.35389458     5.4237971      0.019453354    0.021839561    0.020438725    0.016081777   -0.0016563002   0.0015384319  -0.00049004185  33.644561      33.644561      33.644561      0              0              0              0.0057766768 
      1200   0.69112667     0.0066111359   0.68702169    -2.2326918     -0.023747321   -0.029639338   -0.023161562   -0.018441063    0.0019480291  -0.002655585    0.00019093458  32.164899      32.164899      32.164899      0              0              0              0.0066111359 
      1300   1.0131577      0.0074952889   0.25027048     4.9370251      0.021631518    0.024589719    0.023047478    0.017257358   -0.0023905819   0.0012000245  -0.00041285665  30.846894      30.846894      30.846894      0              0              0              0.0074952889 
      1400   1.0192258      0.0084295267   0.017462544    3.3411149      0.013812606    0.018806634    0.012491324    0.01013986     5.390044e-05   0.00030331533 -0.00056699876  29.662414      29.662414      29.662414      0              0              0              0.0084295267 
      1500   0.88311975     0.0093839678   0.41315287    -1.1037972     -0.024185098   -0.038879732   -0.018527615   -0.015147946    0.0010713515  -0.0023004326   0.0021817342   28.620599      28.620599      28.620599      0              0              0              0.0093839678 
      1600   0.86097005     0.010398084    0.46874727     5.647415       0.036806097    0.047418423    0.034915143    0.028084724   -0.0035005144   0.00054612882 -0.0024086289   27.65815       27.65815       27.65815       0              0              0              0.010398084  
      1700   1.0917398      0.011447199    0.061363773    1.4325351     -0.0026874937  -0.0040776693  -0.0022800884  -0.0017047233   0.002501147    0.00048358489  0.00040452215  26.785997      26.785997      26.785997      0              0              0              0.011447199  
      1800   1.1880187      0.012516806    0.11469863     0.93527957    -0.010838837   -0.026682815   -0.00094515071 -0.0048885454   0.0020832691  -0.00064174218  0.0011535819   26.000182      26.000182      26.000182      0              0              0              0.012516806  
      1900   0.92222808     0.013652288    0.44674581     5.8407744      0.049863158    0.068609508    0.045528941    0.035451025   -0.0092958052  -0.0021629895  -0.0012441856   25.258395      25.258395      25.258395      0              0              0              0.013652288  
      2000   0.99953759     0.014801283    0.27372785    -0.16081907    -0.025920502   -0.042358333   -0.018718322   -0.01668485     0.0088343777   0.0070984243  -0.0029121853   24.587126      24.587126      24.587126      0              0              0              0.014801283  
      2100   1.2298635      0.015985218   -0.023529354    2.8824122      0.015554639    0.013440464    0.019466523    0.013756931    0.0013344305  -0.0019176749   0.0013609908   23.964482      23.964482      23.964482      0              0              0              0.015985218  
      2200   0.97860577     0.017232264    0.16737574     4.7218642      0.048468396    0.070220771    0.04072807     0.034456347   -0.0076901727  -0.0040833891   0.00058348619  23.371869      23.371869      23.371869      0              0              0              0.017232264  
      2300   0.81871014     0.018476236    0.35121471    -1.0970498     -0.044850044   -0.071850779   -0.035919893   -0.026779459    0.0081916248   0.002494397   -0.0056656576   22.835108      22.835108      22.835108      0              0              0              0.018476236  
      2400   1.021919       0.019777132    0.037932777    3.8321147      0.040794251    0.050242955    0.042453572    0.029686226   -0.0037595687  -0.0015379562   0.00091355799  22.323029      22.323029      22.323029      0              0              0              0.019777132  
      2500   0.99194518     0.021121513   -0.032430491    3.1445808      0.03257577     0.04336442     0.026671883    0.027691007   -0.0037554279   0.0010996255  -0.0035314244   21.83899       21.83899       21.83899       0              0              0              0.021121513  
      2600   0.86547643     0.022460752    0.20729883    -0.75320882    -0.045988006   -0.068508659   -0.035517166   -0.033938195    0.0010879564   0.0084082824   0.003320696    21.39601       21.39601       21.39601       0              0              0              0.022460752  
      2700   0.92507841     0.023873124    0.14698533     4.4365712      0.063131529    0.075931425    0.065340028    0.048123132    0.0012065     -0.0094938001   8.4329093e-05  20.965464      20.965464      20.965464      0              0              0              0.023873124  
      2800   1.0601398      0.025301449   -0.063872884    1.8993096      0.0087617508   0.0097759664   0.0079284884   0.0085807976  -0.0046535294   0.0033019338  -0.0059597661   20.563282      20.563282      20.563282      0              0              0              0.025301449  
      2900   1.0766422      0.026732104    0.021147743    0.73016922    -0.021819885   -0.033001638   -0.020796505   -0.011661513   -0.00023945113  0.0020113656   0.0019843782   20.189699      20.189699      20.189699      0              0              0              0.026732104  
      3000   0.9924329      0.028241577    0.14746431     4.7529099      0.080212226    0.094721745    0.079685957    0.066228976    0.0028411402  -0.0027460282   0.008628082    19.823389      19.823389      19.823389      0              0              0              0.028241577  
      3100   1.0538569      0.02974562     0.019124732    0.99356119    -0.016182834   -0.031201314   -0.0098910987  -0.0074560877  -0.0087843031  -0.0022555955   0.0015117704   19.483481      19.483481      19.483481      0              0              0              0.02974562   
      3200   1.1195628      0.031273077   -0.067058487    1.7848987      0.0051461189   0.0041619898   0.011126405    0.00014996202 -0.004132765   -0.0033708862  -0.0022817289   19.160964      19.160964      19.160964      0              0              0              0.031273077  
      3300   1.0145043      0.032874816   -0.0098268245   4.2794575      0.082938276    0.097546387    0.072235384    0.079033058    0.0071914739   0.0046002372   0.0015772576   18.84458       18.84458       18.84458       0              0              0              0.032874816  
      3400   0.92277721     0.034452314    0.055846049    0.040461737   -0.043617548   -0.069275094   -0.025136334   -0.036441215   -0.010915724   -0.008775897    0.0014246297   18.552457      18.552457      18.552457      0              0              0              0.034452314  
      3500   0.9617035      0.036088494   -0.027184786    2.6426627      0.040501296    0.050369126    0.049333002    0.021801759    0.00018582096  0.0025470897   0.0075119221   18.267732      18.267732      18.267732      0              0              0              0.036088494  
      3600   0.95346099     0.037769213   -0.07568221     3.2441976      0.065129208    0.070941664    0.056777538    0.067668424    0.0014727017  -0.0014385712  -0.0015258854   17.992641      17.992641      17.992641      0              0              0              0.037769213  
      3700   0.90493541     0.039431371    0.0064811677   0.25121021    -0.039642403   -0.045734689   -0.038271427   -0.034921094   -0.0039059194   0.0092164434  -0.004124058    17.736187      17.736187      17.736187      0              0              0              0.039431371  
      3800   0.96578281     0.041161545   -0.046555777    3.0034559      0.06019243     0.066637958    0.066477087    0.047462245    0.0017402044  -0.0089927404   0.014506142    17.484116      17.484116      17.484116      0              0              0              0.041161545  
      3900   1.0270004      0.042916884   -0.12917722     2.596481       0.046539853    0.046544097    0.050956684    0.042118778   -0.0071845186  -0.0055728379  -0.003440109    17.242418      17.242418      17.242418      0              0              0              0.042916884  
      4000   1.0123298      0.044656411   -0.053531758    0.63751922    -0.033283286   -0.020510852   -0.040551072   -0.038787933    0.00087981782 -0.0055920529  -0.00030793966  17.015562      17.015562      17.015562      0              0              0              0.044656411  
      4100   1.0484446      0.046474261   -0.089280768    3.2752393      0.076036815    0.066210651    0.076061384    0.085838411    0.0048612341   0.0070670705   0.023280695    16.790749      16.790749      16.790749      0              0              0              0.046474261  
      4200   1.0575098      0.048300178   -0.13482793     1.8624913      0.018397356    0.010821882    0.02018194     0.024188247   -0.007655214   -0.0021558271  -0.0073357204   16.576442      16.576442      16.576442      0              0              0              0.048300178  
      4300   1.0440789      0.050131685   -0.13114423     0.95827867    -0.021368169   -0.0011613908  -0.021945043   -0.040998073   -0.0064056937  -0.00289176    -0.0025929838   16.372065      16.372065      16.372065      0              0              0              0.050131685  
      4400   1.0124077      0.052044893   -0.14762189     3.3937563      0.096063502    0.090750699    0.096692586    0.10074722     0.0096603449  -0.013253047   -0.0016968628   16.168939      16.168939      16.168939      0              0              0              0.052044893  
      4500   0.99135036     0.053927517   -0.1870547      1.0228201     -0.01322281    -0.032761209    0.0058775159  -0.012784737   -0.0095750303   0.0064108753  -0.0017352324   15.978552      15.978552      15.978552      0              0              0              0.053927517  
      4600   0.98429309     0.055848713   -0.22232292     1.6473637      0.020340568    0.045999836    0.017268118   -0.0022462513  -0.021836364   -0.00092906333  0.006308112    15.793189      15.793189      15.793189      0              0              0              0.055848713  
      4700   0.98248659     0.057823275   -0.28284966     2.7825179      0.084054346    0.075964019    0.083755214    0.092443806    0.0044004155  -0.016888875   -0.0025124795   15.611333      15.611333      15.611333      0              0              0              0.057823275  
      4800   0.95946153     0.059788643   -0.29438211     0.46522947    -0.036546339   -0.047093368   -0.02222542    -0.040320229   -0.014875808    0.01671974     0.014986455    15.438366      15.438366      15.438366      0              0              0              0.059788643  
      4900   0.92821097     0.061800681   -0.25133528     1.6555245      0.029299417    0.050421556    0.034115412    0.0033612823  -0.012431375    0.002509024    0.0031757294   15.268972      15.268972      15.268972      0              0              0              0.061800681  
      5000   0.94871397     0.063864818   -0.29370254     2.296399       0.068169652    0.064887723    0.079769237    0.059851998   -0.0016942062   0.028866183   -0.015564356    15.102668      15.102668      15.102668      0              0              0              0.063864818  
      5100   0.97212347     0.065916381   -0.30391548     0.73228098    -0.024850345   -0.015244338   -0.041113455   -0.018193242   -0.014208718   -0.00085533473  0.019562311    14.94433       14.94433       14.94433       0              0              0              0.065916381  
      5200   1.0170218      0.068010498   -0.32266222     2.0461789      0.052611441    0.04491422     0.076761245    0.036158859    0.0058128771  -0.024251719    0.011462589    14.789344      14.789344      14.789344      0              0              0              0.068010498  
      5300   1.0451948      0.070129901   -0.34649056     2.1096709      0.057137273    0.069998481    0.064618578    0.03679476     0.0039992412   0.010406276   -0.012713675    14.638834      14.638834      14.638834      0              0              0              0.070129901  
      5400   1.0689841      0.072235013   -0.37174899     0.82011556    -0.026503302   -0.033369908   -0.034849251   -0.011290745    0.0020206281   0.0091835602  -0.0011541597   14.495225      14.495225      14.495225      0              0              0              0.072235013  
      5500   1.0431417      0.074401818   -0.35793663     2.4954603      0.087693218    0.083693356    0.087309432    0.092076866   -0.0091998966  -0.018230397   -0.008046798    14.353122      14.353122      14.353122      0              0              0              0.074401818  
      5600   1.0261533      0.076565977   -0.40447132     1.1988495      0.0049967652   0.040774249   -0.0032410117  -0.022542942    0.00069329042  0.015380246   -0.0056865006   14.216596      14.216596      14.216596      0              0              0              0.076565977  
      5700   1.0386717      0.078784311   -0.50418482     1.0042656     -0.0029914421  -0.0063726488   0.0043474644  -0.0069491419  -0.010438449    0.0035458966  -0.015994685    14.081891      14.081891      14.081891      0              0              0              0.078784311  
      5800   1.0002978      0.081034835   -0.52977604     1.7638991      0.058988261    0.09422415     0.045289769    0.037450865   -0.0069181157  -0.0084028733  -0.0074335193   13.950303      13.950303      13.950303      0              0              0              0.081034835  
      5900   0.92790127     0.08329857    -0.50171986     1.0198677      0.010351352   -0.0061497917  -0.0060578702   0.043261718   -0.019990229   -0.027025032    0.027016434    13.822769      13.822769      13.822769      0              0              0              0.08329857   
      6000   0.94313792     0.085577575   -0.56713497     1.1115885      0.021090216    0.05459594     0.016246216   -0.0075715067  -0.014857165    0.0028344293  -0.005786485    13.698959      13.698959      13.698959      0              0              0              0.085577575  
      6100   0.95079544     0.087910024   -0.60806225     1.2203633      0.032715588    0.018070741    0.052465462    0.027610562    0.014381343    0.023397906    0.0029585416   13.576717      13.576717      13.576717      0              0              0              0.087910024  
      6200   0.96992655     0.090258052   -0.63454108     1.0882087      0.022575542    0.025714608    0.01455832     0.027453699   -0.0048655359   0.00092933552  0.027377997    13.45795       13.45795       13.45795       0              0              0              0.090258052  
      6300   0.97844926     0.09258934    -0.62032217     1.2042451      0.030658158    0.018514452    0.048528162    0.02493186    -0.0044218164   0.0065527796   0.014532393    13.344037      13.344037      13.344037      0              0              0              0.09258934   
      6400   1.0031809      0.094961592   -0.62647464     1.4830481      0.052856935    0.04892594     0.040937236    0.068707628    0.014429818   -0.015001128   -0.0064805999   13.231982      13.231982      13.231982      0              0              0              0.094961592  
      6500   1.0242913      0.097352172   -0.6261657      1.0360447      0.011811091   -0.0012236998   0.019214779    0.017442193   -0.026412816    3.4068886e-05  0.018690246    13.122775      13.122775      13.122775      0              0              0              0.097352172  
      6600   1.0566056      0.099774714   -0.65015197     1.1822404      0.023166651    0.040148105    0.019691539    0.0096603099  -0.022530596   -0.026883448   -0.0094748996   13.015696      13.015696      13.015696      0              0              0              0.099774714  
      6700   1.1014108      0.10219603    -0.71773702     1.6694513      0.069059678    0.10224227     0.075132319    0.029804448    0.0086993843   0.0053816665   0.014261923    12.912081      12.912081      12.912081      0              0              0              0.10219603   
      6800   1.0677359      0.10462419    -0.71495868     0.98699416     0.010306154    0.029677498    0.0001618815   0.0010790825   0.003508826   -0.020311907    0.0066631878   12.811408      12.811408      12.811408      0              0              0              0.10462419   
      6900   0.97654967     0.10709166    -0.65003892     1.1876789      0.037016472    0.010097804    0.055859701    0.045091909   -0.063307846    0.024636923   -0.019087234    12.712248      12.712248      12.712248      0              0              0              0.10709166   
      7000   0.94450197     0.10959855    -0.66936428     1.2724661      0.053021904    0.040129323    0.083829284    0.035107104   -0.025403298    0.04274392    -0.019411582    12.614575      12.614575      12.614575      0              0              0              0.10959855   
      7100   0.98105053     0.11213269    -0.77123232     0.44742885    -0.025031762   -0.057040866    0.0039566228  -0.022011041    0.010683249   -0.0079075955  -0.022277648    12.518822      12.518822      12.518822      0              0              0              0.11213269   
      7200   0.96730461     0.11471937    -0.77533291     1.1080824      0.045857836    0.080792837    0.029561242    0.02721943     0.013450464    0.0024836243   0.063133182    12.424015      12.424015      12.424015      0              0              0              0.11471937   
      7300   1.0030524      0.11726835    -0.83552296     1.3099183      0.069122821    0.049657002    0.074213936    0.083497524    0.004402381    0.016624766    0.024895921    12.333338      12.333338      12.333338      0              0              0              0.11726835   
      7400   0.99003243     0.11980578    -0.81342094     0.92554977     0.02846447     0.026751775   -0.012995015    0.071636651    0.0025942644   0.0065581755  -0.033446598    12.245644      12.245644      12.245644      0              0              0              0.11980578   
      7500   0.96136294     0.12240313    -0.76337564     0.80872169     0.015274034    0.026989956    0.037359355   -0.018527209   -0.021053127   -0.016449404    0.02105863     12.158408      12.158408      12.158408      0              0              0              0.12240313   
      7600   1.0287973      0.12511379    -0.84663986     1.332874       0.07325228     0.10666328    -0.00090065741  0.11399422    -0.0019288594   0.0083467943  -0.00091508558  12.06996       12.06996       12.06996       0              0              0              0.12511379   
      7700   1.0016448      0.12775704    -0.78497679     0.72110123     0.0012918783   0.032626728   -0.022629509   -0.0061215841   0.016050655    0.024673527   -0.030358002    11.986138      11.986138      11.986138      0              0              0              0.12775704   
      7800   1.0195111      0.13044386    -0.80197966     0.79839573     0.0093391975  -0.014076964    0.050097076   -0.0080025197  -0.032119037   -0.034604638    0.008803874    11.903272      11.903272      11.903272      0              0              0              0.13044386   
      7900   1.0188834      0.1331831     -0.80873421     1.717485       0.12174578     0.14171472     0.10586291     0.1176597     -0.0055114464   0.0027748779   0.013304688    11.821099      11.821099      11.821099      0              0              0              0.1331831    
      8000   1.0456615      0.13583025    -0.86442209     0.74261449     0.0057279437  -0.026660027    0.039719815    0.004124043   -0.0071758096   0.0031752727   0.022592289    11.743802      11.743802      11.743802      0              0              0              0.13583025   
      8100   1.0176406      0.13858896    -0.85397801     0.53747204    -0.016048417    0.0030455574  -0.099419303    0.048228495   -0.027472383   -0.015064145    0.009217959    11.665357      11.665357      11.665357      0              0              0              0.13858896   
      8200   0.97718644     0.14142653    -0.83489292     1.1736123      0.070720268    0.073952263    0.086952618    0.051255924    0.02767326     0.014111913   -0.017629042    11.586811      11.586811      11.586811      0              0              0              0.14142653   
      8300   1.0053547      0.1442421     -0.91921657     0.89916125     0.041684128    0.0046555117   0.024572988    0.095823884   -0.031221017    0.050366193   -0.02639853     11.510925      11.510925      11.510925      0              0              0              0.1442421    
      8400   1.0342844      0.14707414    -1.0038602      0.70781997     0.022463663    0.015380344   -0.05110898     0.10311963    -0.00040230648 -0.025335786   -0.0042264601   11.436561      11.436561      11.436561      0              0              0              0.14707414   
      8500   0.96174036     0.14990907    -0.94213148     0.34389235    -0.020356787    0.027538922    0.023248008   -0.11185729    -0.0079244848   0.0059344935   0.02211768     11.36401       11.36401       11.36401       0              0              0              0.14990907   
      8600   1.0129177      0.15282738    -1.0712154      0.51692605     0.010609242    0.043639581    0.0061799221  -0.017991777   -0.015429765   -0.0069675945  -0.044199547    11.29121       11.29121       11.29121       0              0              0              0.15282738   
      8700   0.98154637     0.1558328     -1.0740015      0.60619572     0.030492119    0.007684887    0.025315233    0.058476237    0.086206305   -0.0093527778  -0.017201865    11.218151      11.218151      11.218151      0              0              0              0.1558328    
      8800   0.99470673     0.15874135    -1.1178435     -0.29285098    -0.095188139   -0.066869783   -0.1199718     -0.098722839    0.046142082    0.025240582   -0.0003629066   11.149213      11.149213      11.149213      0              0              0              0.15874135   
      8900   0.9714788      0.16182501    -1.1096615      0.99617407     0.096492347    0.067877819    0.1337188      0.087880423   -0.01567504    -0.061314766   -0.045705837    11.07794       11.07794       11.07794       0              0              0              0.16182501   
      9000   0.97082244     0.16473817    -1.1057238     -0.027616119   -0.055538454   -0.0526095     -0.053627485   -0.060378377   -0.074542351    0.030286422   -0.007463533    11.012252      11.012252      11.012252      0              0              0              0.16473817   
      9100   0.93487157     0.16779638    -1.0333453      0.66220451     0.045801394   -0.050269361   -0.015077007    0.20275055     0.0052736787   0.035357297   -0.075275651    10.94494       10.94494       10.94494       0              0              0              0.16779638   
      9200   1.0311027      0.17085109    -1.1446993      0.63854945     0.037948814    0.036429773    0.098307308   -0.020890639    0.0037261712   0.066915381    0.050070062    10.879317      10.879317      10.879317      0              0              0              0.17085109   
      9300   1.043567       0.17376859    -1.1293559      0.66173313     0.036896654    0.049922277    0.022157754    0.038609931    0.034568625    0.015738435    0.04911853     10.818087      10.818087      10.818087      0              0              0              0.17376859   
      9400   1.0991683      0.17671743    -1.2152017      0.57596222     0.024203092    0.022834267    0.092078528   -0.042303518    0.019823753   -0.02854504    -0.025489699    10.757576      10.757576      10.757576      0              0              0              0.17671743   
      9500   1.0329067      0.17975897    -1.159756       0.75609543     0.061156972    0.08440551     0.05587601     0.043189396   -0.038099016    0.064471871    0.0021894858   10.696558      10.696558      10.696558      0              0              0              0.17975897   
      9600   1.0240575      0.18278349    -1.2175003      0.25161401    -0.0098522703  -0.049224725    0.012410168    0.0072577459  -0.057220911    0.017806724    0.018068908    10.637231      10.637231      10.637231      0              0              0              0.18278349   
      9700   0.95857496     0.18589029    -1.205624       0.94609141     0.12184978     0.069276941    0.20742103     0.088851383    0.033760326   -0.017734804   -0.083562658    10.577637      10.577637      10.577637      0              0              0              0.18589029   
      9800   0.97509492     0.18893876    -1.3044979     -0.083696919   -0.040283155   -0.090524699   -0.033722756    0.0033979901   0.048051826   -0.030861434    0.023857759    10.520439      10.520439      10.520439      0              0              0              0.18893876   
      9900   0.96564393     0.19217631    -1.3579782     -0.20124428    -0.049701968   -0.034843076   -0.091152254   -0.023110575   -0.057096288    0.024210875   -0.010605584    10.461026      10.461026      10.461026      0              0              0              0.19217631   
     10000   0.93353823     0.19543353    -1.3528402      0.0621729      0.003856666    0.034681127    0.019606325   -0.042717454   -0.029300699   -0.0025791436   0.089473343    10.402583      10.402583      10.402583      0              0              0              0.19543353   
     10100   0.98212548     0.19868147    -1.4406765      0.20638332     0.032735035   -0.025563314    0.078350678    0.045417741    0.042074305   -0.026348746   -0.040385763    10.345586      10.345586      10.345586      0              0              0              0.19868147   
     10200   0.95834434     0.20194135    -1.3985561     -0.040771398   -0.013317882    0.0095605389   0.022803313   -0.072317497    0.058035273    0.06104723     0.0050808254   10.289615      10.289615      10.289615      0              0              0              0.20194135   
     10300   1.0067647      0.20520011    -1.440839      -0.36354733    -0.079338697   -0.085655116    0.028070911   -0.18043189    -0.044183458   -0.0055554587  -0.12361142     10.234855      10.234855      10.234855      0              0              0              0.20520011   
     10400   1.0820516      0.20854997    -1.5295896      0.72093368     0.12049663     0.14557732     0.096650209    0.11926235    -0.051871569    0.00112843    -0.0039948026   10.17976       10.17976       10.17976       0              0              0              0.20854997   
     10500   1.1309522      0.21169754    -1.5994947      0.49720647     0.078665836    0.07911927     0.021756854    0.13512139    -0.026574297   -0.026188956    0.031260909    10.129056      10.129056      10.129056      0              0              0              0.21169754   
     10600   1.0675925      0.21486292    -1.5537606      0.097911393    0.01138583    -0.033908797    0.099343592   -0.031277305    0.03219519     0.063336418    0.044719453    10.079069      10.079069      10.079069      0              0              0              0.21486292   
     10700   1.0078545      0.21816983    -1.5641373      0.55423133     0.12180735     0.22650584     0.043400394    0.095515819    0.0093210402  -0.056851716   -0.1702385      10.027885      10.027885      10.027885      0              0              0              0.21816983   
     10800   1.0225352      0.22136553    -1.6942465      0.23788612     0.081703758    0.16697663    -0.042105529    0.12024018     0.00021356137  0.0014661961   0.014495514    9.9793953      9.9793953      9.9793953      0              0              0              0.22136553   
     10900   0.96714166     0.2246253     -1.7115258     -0.076617641    0.039094862    0.0076238374   0.037055149    0.072605599   -0.02896383     0.058850995    0.022788069    9.9308862      9.9308862      9.9308862      0              0              0              0.2246253    
     11000   0.90201076     0.2279448     -1.6802773     -0.74458208    -0.085076417   -0.11378361    -0.041644114   -0.099801528   -0.064310505   -0.045510645   -0.042106722    9.8824433      9.8824433      9.8824433      0              0              0              0.2279448    
     11100   0.87873031     0.23150853    -1.6825522     -0.52295568    -0.031971012    0.022673955   -0.080322163   -0.038264828   -0.04723275     0.071854909    0.045976888    9.8314724      9.8314724      9.8314724      0              0              0              0.23150853   
     11200   0.91254138     0.23513291    -1.7182385     -0.53518124    -0.038243458   -0.071310547   -0.023988296   -0.019431533   -0.036939063    0.044142384   -0.037798126    9.7806959      9.7806959      9.7806959      0              0              0              0.23513291   
     11300   0.95842164     0.2388628     -1.7416811     -0.62913605    -0.069031188   -0.052122138   -0.14411644    -0.010854981   -0.04020001    -0.036092107    0.040203301    9.7295194      9.7295194      9.7295194      0              0              0              0.2388628    
     11400   0.97008535     0.24248676    -1.6859732     -0.45271052    -0.047304697   -0.0099824011  -0.067799276   -0.064132415    0.0099858823  -0.010633129   -0.11638526     9.6808067      9.6808067      9.6808067      0              0              0              0.24248676   
     11500   1.0992003      0.24607215    -1.8029187      0.17874906     0.076307269    0.098504783   -0.0012518008   0.13166883    -0.027612706   -0.15299783    -0.064206832    9.6335586      9.6335586      9.6335586      0              0              0              0.24607215   
     11600   1.1201723      0.24963638    -1.8002417      0.29044459     0.095050005    0.16339925     0.1727679     -0.051017131    0.050619959   -0.037705007   -0.097326605    9.5874902      9.5874902      9.5874902      0              0              0              0.24963638   
     11700   1.104249       0.25292999    -1.7928866      0.34480491     0.11257681     0.17858783     0.0094933372   0.14964927     0.0064561019   0.079425057    0.030238584    9.5456927      9.5456927      9.5456927      0              0              0              0.25292999   
     11800   1.0407825      0.25631566    -1.7879677     -0.19511319     0.0092009388  -0.0047882713   0.043116597   -0.010725509    0.049262451    0.04787845     0.071162424    9.5034767      9.5034767      9.5034767      0              0              0              0.25631566   
     11900   1.0328874      0.2598523     -1.8832462     -0.6538909     -0.073757699   -0.065573773   -0.2257603      0.070060975   -0.11985575    -0.11859508    -0.02505361     9.4601649      9.4601649      9.4601649      0              0              0              0.2598523    
     12000   1.0052597      0.26349141    -1.9438292     -0.031626846    0.098654134    0.039730243    0.065725113    0.19050705     0.023376094   -0.046487904    0.0238022      9.416411       9.416411       9.416411       0              0              0              0.26349141   
     12100   0.98191561     0.26703083    -1.9946574     -0.75761251    -0.055460879    0.057723973   -0.053735067   -0.17037154    -0.060385629    0.046990622    0.025909951    9.3746218      9.3746218      9.3746218      0              0              0              0.26703083   
     12200   0.92474972     0.27066656    -1.9689921     -0.71781529    -0.031744799    0.058226441   -0.10979212    -0.043668714   -0.060381536    0.058286366   -0.053401803    9.3324576      9.3324576      9.3324576      0              0              0              0.27066656   
     12300   0.96803472     0.27449953    -2.0792194     -1.1541717     -0.12969956    -0.051313834   -0.090642679   -0.24714218     0.059708222    0.0064148022   0.098561805    9.288816       9.288816       9.288816       0              0              0              0.27449953   
     12400   1.0211902      0.27853024    -2.1772795     -0.65904112    -0.0014908922  -0.024191941   -0.077816911    0.097536175   -0.001518936   -0.039800442    0.003437566    9.2437908      9.2437908      9.2437908      0              0              0              0.27853024   
     12500   1.0036163      0.28231728    -2.1512557     -0.4029638      0.064264271    0.10417271     0.033413025    0.055207077    0.022088755    0.025602528   -0.014024521    9.2022721      9.2022721      9.2022721      0              0              0              0.28231728   
     12600   0.97994544     0.28588332    -2.1174599     -0.73560859    -0.020977932    0.030932405    0.075233561   -0.16909976     0.00044007499 -0.13914954    -0.10034725     9.1638496      9.1638496      9.1638496      0              0              0              0.28588332   
     12700   0.99999597     0.28954661    -2.1615307      0.2497252      0.24184037     0.07261015     0.43740867     0.21550229     0.12518458     0.00025982798  0.17780669     9.1250391      9.1250391      9.1250391      0              0              0              0.28954661   
     12800   0.9961363      0.29291064    -2.1735639     -0.44598967     0.064131667    0.026135352   -0.018080487    0.18434013     0.036549231   -0.055797989    0.22967166     9.0899713      9.0899713      9.0899713      0              0              0              0.29291064   
     12900   0.96504359     0.29642929    -2.154252      -0.390699       0.087103172   -0.017328422    0.061994731    0.21664321    -0.10103261     0.017567536    0.08848635     9.0538617      9.0538617      9.0538617      0              0              0              0.29642929   
     13000   0.95443622     0.29998561    -2.1580363     -0.68266583     0.013874176    0.106464       0.046289277   -0.11113075    -0.033669708    0.060061772    0.047297914    9.0179417      9.0179417      9.0179417      0              0              0              0.29998561   
     13100   0.95594805     0.30372215    -2.1626201     -1.1274921     -0.10813184    -0.048983584   -0.077806242   -0.1976057     -0.08660358     0.040644446    0.15843309     8.9808078      8.9808078      8.9808078      0              0              0              0.30372215   
     13200   0.95858058     0.30788023    -2.1515453     -1.1132984     -0.10983896    -0.0094859237  -0.15394288    -0.16608807    -0.014234895    0.051473329    0.10081612     8.9401943      8.9401943      8.9401943      0              0              0              0.30788023   
     13300   0.93304779     0.31216806    -2.0819457     -0.63322449     0.01593403     0.10634789    -0.18222783     0.12368203     0.22331531    -0.079089748   -0.086252882    8.8990723      8.8990723      8.8990723      0              0              0              0.31216806   
     13400   0.98018912     0.31633186    -2.0982209     -0.75696572    -0.034991203    0.16951281    -0.2843392      0.0098527831   0.035861562    0.11612108    -0.05303801     8.8598544      8.8598544      8.8598544      0              0              0              0.31633186   
     13500   1.0357873      0.32030899    -2.1226501     -0.74891893    -0.050137507    0.02705281    -0.040301376   -0.13716395    -0.10160071     0.13629351    -0.039913666    8.8230319      8.8230319      8.8230319      0              0              0              0.32030899   
     13600   1.0786405      0.32413845    -2.1421547     -0.80719271    -0.081007806   -0.15011209    -0.051495581   -0.041415745   -0.018723495   -0.14993815     0.12615722     8.7881483      8.7881483      8.7881483      0              0              0              0.32413845   
     13700   1.0642115      0.32827651    -2.1132148     -0.38208604     0.042614209    0.24715512     0.14608233    -0.26539482    -0.065073662   -0.086723029   -0.0010978074   8.751066       8.751066       8.751066       0              0              0              0.32827651   
     13800   1.1072383      0.33227258    -2.206471      -0.78693664    -0.070387074    0.055436613   -0.26773926     0.0011414223  -0.19618345    -0.023061852    0.1304934      8.7158429      8.7158429      8.7158429      0              0              0              0.33227258   
     13900   1.0622315      0.33637608    -2.2203702     -1.1216109     -0.14880706    -0.25593426    -0.022154145   -0.16833276    -0.043921225    0.019688817   -0.065512907    8.6802558      8.6802558      8.6802558      0              0              0              0.33637608   
     14000   1.0123716      0.34081452    -2.2410056     -0.9658533     -0.07306207     0.1031277     -0.1596585     -0.1626554      0.061558454   -0.017120645   -0.049565868    8.6424099      8.6424099      8.6424099      0              0              0              0.34081452   
     14100   0.95335829     0.34525884    -2.2221236     -1.1817484     -0.12005969    -0.11123585     0.14153356    -0.39047678     0.023227588    0.063308282    0.074081852    8.6051668      8.6051668      8.6051668      0              0              0              0.34525884   
     14200   1.0378124      0.34942421    -2.3769557     -1.0600923     -0.073719465   -0.060604709   -0.23711721     0.076563524   -0.017611076    0.027479549    0.024615225    8.5708368      8.5708368      8.5708368      0              0              0              0.34942421   
     14300   1.0184893      0.35366541    -2.3757895     -0.43720304     0.13455079     0.082500824    0.24846196     0.072689585    0.18535883     0.012802385   -0.011506795    8.5364381      8.5364381      8.5364381      0              0              0              0.35366541   
     14400   1.0058639      0.35770057    -2.3787316     -1.6981284     -0.26686046    -0.13705364    -0.22853494    -0.43499279     0.005694465    0.1040081      0.090563493    8.5042173      8.5042173      8.5042173      0              0              0              0.35770057   
     14500   0.97023781     0.36205845    -2.3514141     -1.2780605     -0.12333895     0.078317296   -0.23929436    -0.20903978    -0.26519096     0.11174768     0.015501738    8.4699595      8.4699595      8.4699595      0              0              0              0.36205845   
     14600   0.95097448     0.36648755    -2.3522243     -0.55572906     0.12566054     0.049024091    0.28319677     0.044760758    0.20457576    -0.063181411    0.042048677    8.4357005      8.4357005      8.4357005      0              0              0              0.36648755   
     14700   0.96613341     0.37059086    -2.3963481     -0.47457479     0.16165148     0.2144751      0.26841836     0.0020609825   0.055141664    0.16451827     0.14145937     8.4044505      8.4044505      8.4044505      0              0              0              0.37059086   
     14800   1.018689       0.37443403    -2.4966065     -0.98373308    -0.0025597216   0.050679536   -0.15540927     0.097050569   -0.11991741     0.022924672    0.1012202      8.3755973      8.3755973      8.3755973      0              0              0              0.37443403   
     14900   0.99195573     0.37818298    -2.5094015     -0.8594869      0.058247295    0.26181317     0.017783748   -0.10485504    -0.052625508    0.12709012    -0.148537       8.3478294      8.3478294      8.3478294      0              0              0              0.37818298   
     15000   0.9813388      0.38234188    -2.5931981     -1.674         -0.18958944    -0.0036297732  -0.14236887    -0.42276968    -0.19731163    -0.10295403     0.093106931    8.3174514      8.3174514      8.3174514      0              0              0              0.38234188   
     15100   0.91343292     0.3869866     -2.5714783     -1.1924336      0.0055395758  -0.075397752    0.015629396    0.076387083    0.045014402    0.010462338    0.054324402    8.2840412      8.2840412      8.2840412      0              0              0              0.3869866    
     15200   0.91035521     0.39160243    -2.6103745     -1.1004564      0.053832153    0.16219541    -0.077709776    0.077010822   -0.0075269563  -0.032764911   -0.19592606     8.2513644      8.2513644      8.2513644      0              0              0              0.39160243   
     15300   0.90250067     0.39608399    -2.5979374     -1.9153007     -0.23921515    -0.1410504     -0.13601686    -0.44057817    -0.22269404     0.054046466   -0.11575563     8.2201258      8.2201258      8.2201258      0              0              0              0.39608399   
     15400   0.97051522     0.40091546    -2.6699428     -1.3471805     -0.045825272    0.093353515   -0.12537401    -0.10545532     0.27358218     0.084227286   -0.12297395     8.1869718      8.1869718      8.1869718      0              0              0              0.40091546   
     15500   0.99403107     0.40566959    -2.6520066     -1.4118        -0.089758016   -0.20994345    -0.058565371   -0.00076522719  0.034375114    0.012883342   -0.04769702     8.1548644      8.1548644      8.1548644      0              0              0              0.40566959   
     15600   1.0056003      0.41041267    -2.6133142     -1.0075522      0.039139755   -0.05176489     0.15648742     0.012696738    0.074866206   -0.070908324    0.028438742    8.1233277      8.1233277      8.1233277      0              0              0              0.41041267   
     15700   1.0332826      0.41481931    -2.6088233     -1.105496      -0.014649513    0.14382541     0.063752079   -0.25152603     0.13910998    -0.057071135    0.0087554183   8.0944605      8.0944605      8.0944605      0              0              0              0.41481931   
     15800   1.0873602      0.41931459    -2.6719145     -1.1182765     -0.026396654    0.18344171     0.063477322   -0.32610899     0.018212237    0.2228452      0.032545827    8.0654308      8.0654308      8.0654308      0              0              0              0.41931459   
     15900   1.1114343      0.42392984    -2.7143348     -1.3907453     -0.12919312    -0.10955441    -0.21449315    -0.063531788   -0.10478257    -0.11494059     0.058294007    8.0360549      8.0360549      8.0360549      0              0              0              0.42392984   
     16000   1.0240672      0.42857828    -2.629176      -0.99913296     0.039593906    0.11208986     0.10736091    -0.10066906    -0.0093328766   0.08674845    -0.0060646719   8.0068957      8.0068957      8.0068957      0              0              0              0.42857828   
     16100   0.97946283     0.43299364    -2.6622934     -0.99887632     0.079343639    0.061955806   -0.024683994    0.2007591     -0.25678218     0.080990614    0.1845676      7.9795865      7.9795865      7.9795865      0              0              0              0.43299364   
     16200   0.86788637     0.43733616    -2.6287375     -1.2599303      0.029216765    0.037654524   -0.067777652    0.11777342    -0.03506071     0.048032548    0.23425753     7.9530876      7.9530876      7.9530876      0              0              0              0.43733616   
     16300   0.89662939     0.44180519    -2.7218605     -1.6195878     -0.094765872   -0.022370327   -0.15842629    -0.103501      -0.15779107    -0.093001619    0.18632568     7.9261805      7.9261805      7.9261805      0              0              0              0.44180519   
     16400   0.87012013     0.44684478    -2.676496      -1.9269141     -0.2230456     -0.089041289   -0.21898774    -0.36110778    -0.10380387     0.20834197    -0.098901012    7.8962701      7.8962701      7.8962701      0              0              0              0.44684478   
     16500   0.93273354     0.45201782    -2.7252203     -1.667096      -0.13724105    -0.0012909377  -0.13754948    -0.27288274     0.19976408    -0.16458302     0.042686574    7.866032       7.866032       7.866032       0              0              0              0.45201782   
     16600   0.94891071     0.45713377    -2.6925883     -1.3165389     -0.016706096   -0.081063996    0.020867229    0.01007848    -0.11824886     0.0040617838  -0.21921939     7.8365779      7.8365779      7.8365779      0              0              0              0.45713377   
     16700   0.97763785     0.46219145    -2.6726397     -1.4683278     -0.10706565    -0.039297832   -0.17110603    -0.11079309    -0.11432473    -0.018619631   -0.084951605    7.8078883      7.8078883      7.8078883      0              0              0              0.46219145   
     16800   1.0574283      0.46710688    -2.7406899     -1.2912243     -0.054671063   -0.074533784   -0.073805046   -0.015674359    0.10417151    -0.028871132   -0.17389781     7.7804038      7.7804038      7.7804038      0              0              0              0.46710688   
     16900   1.0965052      0.4719351     -2.777204      -1.1415005     -0.00035633252  0.030028757    0.065064892   -0.096162647   -0.047077127    0.045258413    0.16471438     7.7537799      7.7537799      7.7537799      0              0              0              0.4719351    
     17000   1.0597591      0.47647635    -2.7187723     -1.2971706     -0.069344116   -0.11528879    -0.61442642     0.52168286     0.16029054    -0.2100155      0.13501151     7.7290677      7.7290677      7.7290677      0              0              0              0.47647635   
     17100   1.0029959      0.48078254    -2.6554704     -1.2807389     -0.05342803     0.25331774    -0.093320885   -0.32028095    -0.093632097   -0.15154149    -0.12003174     7.705923       7.705923       7.705923       0              0              0              0.48078254   
     17200   0.98036268     0.48529253    -2.6638757     -1.5447129     -0.15177678    -0.29412286    -0.18915535     0.027947874    0.056158359    0.15137425     0.046975866    7.6819774      7.6819774      7.6819774      0              0              0              0.48529253   
     17300   0.97764473     0.49030175    -2.705977      -1.7907368     -0.24242952    -0.10213222    -0.38257555    -0.2425808      0.00074560323  0.025802483   -0.22383635     7.6557265      7.6557265      7.6557265      0              0              0              0.49030175   
     17400   0.97490403     0.49546762    -2.7329652     -1.9950299     -0.32300389    -0.38597453    -0.12898353    -0.45405361    -0.19595151     0.060844364   -0.079240147    7.6290267      7.6290267      7.6290267      0              0              0              0.49546762   
     17500   0.94147197     0.50079391    -2.7132254     -1.8270814     -0.236285       0.054620611   -0.30124622    -0.46222938    -0.013316602    0.10590136    -0.30947395     7.6018836      7.6018836      7.6018836      0              0              0              0.50079391   
     17600   1.0288614      0.50629718    -2.8725813     -1.6054693     -0.1235658     -0.15081883    -0.0049645046  -0.21491407     0.14016701    -0.12031855    -0.050014519    7.5742399      7.5742399      7.5742399      0              0              0              0.50629718   
     17700   1.0004598      0.51154592    -2.8532471     -1.448461      -0.041109733    0.0031971163  -0.047545045   -0.078981269   -0.095532485   -0.016456897    0.081316584    7.5482455      7.5482455      7.5482455      0              0              0              0.51154592   
     17800   0.91534083     0.51652344    -2.7523445     -1.1669359      0.10295834     0.15910617     0.091965154    0.057803696   -0.071976767   -0.036445222   -0.21690928     7.5239208      7.5239208      7.5239208      0              0              0              0.51652344   
     17900   1.0132915      0.52139193    -2.9109027     -1.1395527      0.12277        0.24668254     0.14042716    -0.01879972     0.031530648   -0.014979824   -0.11510654     7.5004293      7.5004293      7.5004293      0              0              0              0.52139193   
     18000   0.97082216     0.52624252    -2.851997      -1.6667518     -0.12615798    -0.13767347    -0.033196428   -0.20760405    -0.0030966715  -0.027466761   -0.16901285     7.4773134      7.4773134      7.4773134      0              0              0              0.52624252   
     18100   1.0204418      0.53132863    -2.919724      -1.6943321     -0.14375694    -0.10343691    -0.010220768   -0.31761315    -0.13050756     0.23739174    -0.0062562214   7.4533781      7.4533781      7.4533781      0              0              0              0.53132863   
     18200   1.0414726      0.53663525    -2.9496085     -1.6481576     -0.12340022    -0.19079679    -0.028813118   -0.15059074    -0.15472022    -0.13835988    -0.093872762    7.4287286      7.4287286      7.4287286      0              0              0              0.53663525   
     18300   1.0231046      0.54196207    -2.9253484     -1.2041274      0.095699339    0.12784313     0.2753536     -0.11609871    -0.39056085     0.21935947     0.16418221     7.40431        7.40431        7.40431        0              0              0              0.54196207   
     18400   1.0488659      0.54679539    -2.9837647     -1.3118956      0.052908346    0.18272911     0.0038525833  -0.027856652   -0.33641564     0.076214101   -0.039189447    7.382429       7.382429       7.382429       0              0              0              0.54679539   
     18500   0.99254844     0.55143738    -2.9427595     -1.5855771     -0.062260369   -0.11061776     0.0096118517  -0.085775195    0.32569639     0.13526782    -0.043004207    7.3616556      7.3616556      7.3616556      0              0              0              0.55143738   
     18600   0.95077149     0.55638587    -2.9333636     -1.7602113     -0.12436447    -0.18410427    -0.022441741   -0.1665474      0.17874177    -0.047703208    0.46100494     7.3397657      7.3397657      7.3397657      0              0              0              0.55638587   
     18700   0.97551884     0.56186011    -3.0225966     -1.6714283     -0.05352665    -0.31385114     0.32041107    -0.16713988    -0.18005618     0.20223455    -0.17799661     7.3158506      7.3158506      7.3158506      0              0              0              0.56186011   
     18800   0.95462898     0.56728027    -3.0333481     -2.1612111     -0.2850051     -0.40699213    -0.36595119    -0.082071968   -0.20694976     0.012608708   -0.0035081758   7.2924759      7.2924759      7.2924759      0              0              0              0.56728027   
     18900   0.93235863     0.5731146     -3.0302253     -2.3442896     -0.36763195    -0.31398872    -0.38156418    -0.40734296    -0.16843655     0.21101249     0.33709161     7.2676455      7.2676455      7.2676455      0              0              0              0.5731146    
     19000   0.95959509     0.57896394    -3.0725405     -1.8854819     -0.12902323    -0.34957494     0.097899403   -0.13539416     0.006677624    0.0033984345  -0.35096205     7.2430874      7.2430874      7.2430874      0              0              0              0.57896394   
     19100   1.0171402      0.58450503    -3.1267712     -1.5661644      0.022596454    0.086491605    0.025398176   -0.044100419    0.25113518    -0.21047768    -0.28400057     7.2201266      7.2201266      7.2201266      0              0              0              0.58450503   
     19200   1.0102338      0.58993846    -3.0523516     -2.0866078     -0.29069499    -0.31235703    -0.19542331    -0.36430462    -0.1695787      0.57986177     0.027519696    7.197892       7.197892       7.197892       0              0              0              0.58993846   
     19300   1.0646356      0.59542634    -3.0566841     -1.1499587      0.17200066     0.20811857     0.045580877    0.26230253     0.24834349    -0.017535725    0.15896935     7.17571        7.17571        7.17571        0              0              0              0.59542634   
     19400   1.1866767      0.60061203    -3.2025443     -1.8320075     -0.21872008    -0.6189988     -0.065781928    0.028620485    0.39188663     0.090683072   -0.24327546     7.1549986      7.1549986      7.1549986      0              0              0              0.60061203   
     19500   1.1008774      0.60591321    -3.1290742     -1.133605       0.19411787     0.41689009    -0.092695128    0.25815865    -0.12475829    -0.10803513     0.0056836202   7.1340709      7.1340709      7.1340709      0              0              0              0.60591321   
     19600   1.0796655      0.61040931    -3.2183831     -1.6074877     -0.00028038615 -0.12007931    -0.21097279     0.33021095    -0.016676143    0.10097955     0.22063967     7.1165119      7.1165119      7.1165119      0              0              0              0.61040931   
     19700   1.0592284      0.6151107     -3.2799229     -2.0503136     -0.19643795    -0.13392975     0.00039839485 -0.45578251    -0.0599172     -0.050098462   -0.27997361     7.0983346      7.0983346      7.0983346      0              0              0              0.6151107    
     19800   1.0357569      0.62031473    -3.2962467     -1.3900722      0.20318541     0.25979454     0.27086479     0.078896888   -0.17271151     0.1346308      0.21601531     7.0784287      7.0784287      7.0784287      0              0              0              0.62031473   
     19900   1.0145337      0.62549451    -3.3023069     -2.0164144     -0.12981799    -0.019435226   -0.64414448     0.27412575    -0.0097476102  -0.24384364    -0.02599757     7.0588355      7.0588355      7.0588355      0              0              0              0.62549451   
     20000   0.99800056     0.63097001    -3.321187      -2.2340589     -0.23081325    -0.12144269    -0.14616293    -0.42483414    -0.050587145   -0.17670997    -0.4052961      7.0383575      7.0383575      7.0383575      0              0              0              0.63097001   
     20100   0.94473637     0.63680712    -3.2842368     -2.2587831     -0.22263082    -0.063130132   -0.30770144    -0.29706089     0.26262223     0.13902526    -0.22264081     7.0167864      7.0167864      7.0167864      0              0              0              0.63680712   
     20200   1.0076567      0.642607      -3.395774      -2.1192342     -0.13283728    -0.081690248   -0.055851964   -0.26096962    -0.020751686    0.038025223    0.41327712     6.9956125      6.9956125      6.9956125      0              0              0              0.642607     
     20300   1.0099438      0.64878153    -3.4200024     -2.5416092     -0.37095443    -0.76580534    -0.19743168    -0.14962628    -0.010493335   -0.37667833     0.069884433    6.973349       6.973349       6.973349       0              0              0              0.64878153   
     20400   0.99984657     0.65554676    -3.4245025     -2.5771544     -0.38434285    -0.71627317     0.017875901   -0.45463128    -0.028788488   -0.29599054    -0.13170748     6.9492777      6.9492777      6.9492777      0              0              0              0.65554676   
     20500   1.052063       0.66195227    -3.5280968     -2.4124758     -0.2735566     -0.31830402    -0.3498163     -0.15254948     0.042082607   -0.015810258   -0.20085038     6.9267897      6.9267897      6.9267897      0              0              0              0.66195227   
     20600   0.99587704     0.66791438    -3.4890261     -1.4968197      0.30715557     0.65034333     0.22015781     0.050965575    0.044660433   -0.056954824    0.26666746     6.9061175      6.9061175      6.9061175      0              0              0              0.66791438   
     20700   0.98707701     0.67297208    -3.5347973     -1.8417968      0.13446476    -0.20996582     0.27770834     0.33565175    -0.077434668    0.18715975     0.13782499     6.8887731      6.8887731      6.8887731      0              0              0              0.67297208   
     20800   0.93807829     0.6775576     -3.5216286     -2.8691178     -0.4604749     -0.63007006    -0.19625284    -0.55510178    -0.16990421     0.054737787   -0.058507275    6.8731974      6.8731974      6.8731974      0              0              0              0.6775576    
     20900   0.94329598     0.6831269     -3.5739408     -2.5118293     -0.21472402    -0.20402455    -0.060659298   -0.37948821     0.053044061   -0.12124591    -0.12972954     6.8544682      6.8544682      6.8544682      0              0              0              0.6831269    
     21000   0.92227284     0.68902111    -3.5736054     -2.5275713     -0.20699332     0.050218811   -0.50293436    -0.16826439    -0.12328454    -0.40741352    -0.38176321     6.8348667      6.8348667      6.8348667      0              0              0              0.68902111   
     21100   0.96026426     0.69518247    -3.6503181     -1.9424172      0.17361007     0.38285312     0.18490253    -0.046925425    0.22170764    -0.045540232   -0.19313151     6.8146144      6.8146144      6.8146144      0              0              0              0.69518247   
     21200   0.96307953     0.7006764     -3.6539442     -2.0374055      0.11410989    -0.15704954     0.78016728    -0.28078806    -0.2087118     -0.19375901     0.32350579     6.7967568      6.7967568      6.7967568      0              0              0              0.7006764    
     21300   1.0160057      0.70597428    -3.7042477     -2.4542761     -0.17098503    -0.4268197     -0.22911777     0.14298238     0.035092142   -0.10523589     0.30234253     6.7797123      6.7797123      6.7797123      0              0              0              0.70597428   
     21400   0.98053973     0.71141105    -3.6119342     -2.0115412      0.088562552    0.49818726    -0.41762279     0.18512319     0.17094239    -0.13494084    -0.096995665    6.7623974      6.7623974      6.7623974      0              0              0              0.71141105   
     21500   1.1184315      0.71627064    -3.7591172     -2.0801319      0.0063333348   0.46756128    -0.25846777    -0.19009351    -0.093705441    0.035891087   -0.42019782     6.7470694      6.7470694      6.7470694      0              0              0              0.71627064   
     21600   1.1263074      0.72126796    -3.7588219     -1.9162816      0.10591255    -0.06397317     0.47593793    -0.094227111    0.14064989    -0.10439068     0.26808156     6.7314509      6.7314509      6.7314509      0              0              0              0.72126796   
     21700   1.0633292      0.72590587    -3.7063994     -1.6259628      0.32561354     0.25433538     0.26729764     0.4552076      0.050171135    0.34609889    -0.23916194     6.7170842      6.7170842      6.7170842      0              0              0              0.72590587   
     21800   1.1185251      0.7299513     -3.8835618     -2.5497089     -0.22266554    -0.4019102     -0.44042106     0.17433463     0.11990133    -0.14134774     0.027791995    6.7046524      6.7046524      6.7046524      0              0              0              0.7299513    
     21900   0.94209765     0.73429773    -3.7184313     -1.4706481      0.56187286     1.1529907      0.0031393797   0.52948854    -0.1194263     -0.09768815     0.042253263    6.6913975      6.6913975      6.6913975      0              0              0              0.73429773   
     22000   0.99553899     0.73799402    -3.8517159     -2.3070827      0.039443325    0.25509232    -0.36281733     0.22605498     0.48687907     0.013718502   -0.39982649     6.6802074      6.6802074      6.6802074      0              0              0              0.73799402   
     22100   0.99707766     0.74184229    -3.8842552     -1.9795763      0.28091578     0.13531399    -0.021179895    0.72861325    -0.35641198    -0.10689066    -0.0090657343   6.6686363      6.6686363      6.6686363      0              0              0              0.74184229   
     22200   0.99695321     0.74575824    -3.9057816     -2.2875839      0.088301191    0.37718878     0.21312539    -0.32541059     0.10062782     0.20557607    -0.054037169    6.6569435      6.6569435      6.6569435      0              0              0              0.74575824   
     22300   0.97338734     0.75032283    -3.8869268     -1.6263846      0.55098361     0.44168334     0.17336616     1.0379013      0.17598108    -0.32633479     0.100912       6.6434169      6.6434169      6.6434169      0              0              0              0.75032283   
     22400   1.0470349      0.75435245    -4.0132712     -2.0237706      0.29268952     0.78591284     0.27474783    -0.18259211    -0.15306296    -0.24141627    -0.014024489    6.6315664      6.6315664      6.6315664      0              0              0              0.75435245   
     22500   0.99092769     0.75773013    -3.9502099     -1.850833       0.42737167     0.61994869     0.40020901     0.26195731     0.19786433    -0.0015554628   0.064611771    6.6216981      6.6216981      6.6216981      0              0              0              0.75773013   
     22600   0.99074623     0.76130008    -3.9983157     -2.0023779      0.35798342     0.099858178    0.25916199     0.71493009     0.046554131    0.040537094   -0.1654138      6.6113315      6.6113315      6.6113315      0              0              0              0.76130008   
     22700   1.0086814      0.76530786    -4.0885109     -2.1221158      0.32069054     0.68589886    -0.035770687    0.31194346     0.026289292   -0.3120224     -0.0073604819   6.5997705      6.5997705      6.5997705      0              0              0              0.76530786   
     22800   0.96941724     0.76897873    -4.1168284     -2.4524286      0.15207923    -0.22146651     0.28040039     0.39730382     0.2891785      0.21834265     0.1188123      6.589252       6.589252       6.589252       0              0              0              0.76897873   
     22900   0.94667909     0.77343133    -4.1580942     -2.6316153      0.07984653     0.15738116     0.32598352    -0.24382509    -0.12479585    -0.0086152623  -0.1094695      6.576583       6.576583       6.576583       0              0              0              0.77343133   
     23000   0.92282122     0.7780606     -4.1546931     -2.356888       0.29742737     0.44055655     0.35785751     0.093868048   -0.043921066   -0.29583317     0.10453748     6.563514       6.563514       6.563514       0              0              0              0.7780606    
     23100   0.93668079     0.78212452    -4.1727679     -2.2243371      0.39137136     0.46050841     0.3473042      0.36630148    -0.16628905     0.08906164     0.37269585     6.5521263      6.5521263      6.5521263      0              0              0              0.78212452   
     23200   0.96246548     0.78602912    -4.1765037     -2.1749831      0.40376237     0.88242992     0.53562237    -0.20676518     0.038204897   -0.12721428     0.41188553     6.5412591      6.5412591      6.5412591      0              0              0              0.78602912   
     23300   0.96814209     0.78984491    -4.1382563     -2.4607097      0.16701236     0.4095316      0.23091529    -0.13940981     0.51246965    -0.22767652    -0.36792422     6.5307083      6.5307083      6.5307083      0              0              0              0.78984491   
     23400   1.0380434      0.79408132    -4.2110659     -1.9921677      0.48339224    -0.30468046     0.74363571     1.0112215     -0.14580474    -0.19575849     0.071698261    6.5190739      6.5190739      6.5190739      0              0              0              0.79408132   
     23500   0.95640565     0.79724556    -4.0713428     -1.5293274      0.80781265     0.44546843     0.96310665     1.0148629      0.16245369     0.082427555   -0.12722674     6.5104377      6.5104377      6.5104377      0              0              0              0.79724556   
     23600   1.0363875      0.79937301    -4.1849395     -1.6950211      0.68536069     0.027646742    1.5616338      0.46680158    -0.0059285739  -0.30961607     0.3744764      6.504657       6.504657       6.504657       0              0              0              0.79937301   
     23700   1.0252303      0.80089631    -4.1735033     -1.6793575      0.70186879     0.52357384     1.0096351      0.57239747    -0.61054731     0.53945664    -0.13189856     6.5005304      6.5005304      6.5005304      0              0              0              0.80089631   
     23800   1.0212478      0.80291708    -4.1853411     -1.6127724      0.76522115     1.5090393      0.032510493    0.75411362    -0.29062262    -0.034868584    0.26200461     6.4950724      6.4950724      6.4950724      0              0              0              0.80291708   
     23900   0.98248979     0.80511743    -4.1572565     -1.1722146      1.1115567      1.0007499      1.2077487      1.1261716      0.10617312    -0.042832427    0.04875632     6.4891501      6.4891501      6.4891501      0              0              0              0.80511743   
     24000   1.0242246      0.80668965    -4.2666733     -1.8039434      0.6850076      0.67811952     0.53780391     0.83909937    -0.13441482    -0.016996747   -0.19971448     6.4849316      6.4849316      6.4849316      0              0              0              0.80668965   
     24100   0.95842959     0.80845705    -4.2276988     -2.2361288      0.41239675     0.58074715     0.30357633     0.35286676    -0.011104494   -0.19557586     0.051274768    6.4802025      6.4802025      6.4802025      0              0              0              0.80845705   
     24200   0.96051095     0.81077525    -4.2734962     -1.8906654      0.69967563     1.0663168      0.57050148     0.46220858     0.19703068    -0.14641436    -0.21330169     6.4740204      6.4740204      6.4740204      0              0              0              0.81077525   
     24300   0.97625929     0.81302607    -4.3268496     -2.1147687      0.55804182     0.90644709     0.37875973     0.38891864     0.42660593    -0.065490284    0.25615512     6.4680406      6.4680406      6.4680406      0              0              0              0.81302607   
     24400   0.99424013     0.81540114    -4.3623875     -1.9934636      0.65604247     0.88538701     0.89543402     0.18730637    -0.067931342    0.14874191     0.06094438     6.4617545      6.4617545      6.4617545      0              0              0              0.81540114   
     24500   1.0389597      0.81777905    -4.4301594     -1.6388115      0.92238084     0.59559027     1.3949335      0.77661873     0.0045206285  -0.076610024   -0.59128889     6.4554854      6.4554854      6.4554854      0              0              0              0.81777905   
     24600   0.95854203     0.81940247    -4.3083466     -1.9885282      0.66237099     1.0563298      0.65628621     0.27449699     0.09676522     0.07849997    -0.42336933     6.4512193      6.4512193      6.4512193      0              0              0              0.81940247   
     24700   1.0261017      0.8210659     -4.3918593     -2.2435279      0.46044964     0.34504443     0.72869006     0.30761442    -0.016838957    0.16957236    -0.14253496     6.4468597      6.4468597      6.4468597      0              0              0              0.8210659    
     24800   1.0440378      0.82286477    -4.3943296     -1.5127855      0.98991951     1.3093273      1.3558851      0.30454613     0.78459666     0.14376741    -0.053895153    6.4421585      6.4421585      6.4421585      0              0              0              0.82286477   
     24900   1.038727       0.82416206    -4.3526143     -1.6133466      0.89081993     0.62448123     0.93471327     1.1132653     -0.50965372     0.091028114   -0.060319332    6.4387765      6.4387765      6.4387765      0              0              0              0.82416206   
     25000   1.0367979      0.82525227    -4.3150633     -1.9010719      0.65012663     1.2238932      0.53348761     0.19299912    -0.36677205    -0.15860147    -0.34534133     6.43594        6.43594        6.43594        0              0              0              0.82525227   
     25100   1.0678679      0.82657312    -4.3529542     -1.4482201      0.98508074     0.70514837     1.7077677      0.5423262      0.46795299    -0.36560035    -0.31596639     6.43251        6.43251        6.43251        0              0              0              0.82657312   
     25200   1.0887506      0.82710024    -4.4067582     -1.6300432      0.86601514     0.55164407     1.5443385      0.50206286     0.13167231     0.92863861     0.44505131     6.4311432      6.4311432      6.4311432      0              0              0              0.82710024   
     25300   0.95957074     0.82775586    -4.2694173     -2.2157317      0.46770179     0.00034495262  0.77731812     0.62544231    -0.41320109    -0.37932712    -0.033963331    6.4294448      6.4294448      6.4294448      0              0              0              0.82775586   
     25400   0.95451459     0.82918141    -4.3141679     -1.6177374      0.95869769     0.7711274      1.1873267      0.91763896     0.044144632    0.097975242    0.3336911      6.4257581      6.4257581      6.4257581      0              0              0              0.82918141   
     25500   0.96171192     0.83023843    -4.3725676     -1.5231665      1.0672686      0.98630519     1.0351683      1.1803322      0.46528707    -0.42660903    -0.18717889     6.42303        6.42303        6.42303        0              0              0              0.83023843   
     25600   1.0058757      0.83110641    -4.4700652     -1.9899046      0.73960246     0.96956214     0.36128937     0.88795587     0.47655365     0.16765135    -0.30208204     6.4207932      6.4207932      6.4207932      0              0              0              0.83110641   
     25700   0.95163947     0.83258892    -4.4162657     -1.6828471      0.99388156     0.89321554     0.81369503     1.2747341     -0.095712897   -0.13058009     0.13405085     6.41698        6.41698        6.41698        0              0              0              0.83258892   
     25800   0.99555999     0.83381808    -4.4866508     -2.3435385      0.498198       0.29364778     0.6799118      0.52103443     0.23298348     0.06553617     0.43807224     6.4138253      6.4138253      6.4138253      0              0              0              0.83381808   
     25900   0.97618388     0.83518499    -4.4371813     -1.5945443      1.0520921      1.3558741      0.9473494      0.85305273    -0.42609629     0.32813298     0.10117168     6.4103243      6.4103243      6.4103243      0              0              0              0.83518499   
     26000   0.99266405     0.83644787    -4.3935506     -1.5460836      1.0386522      0.86542295     1.1059273      1.1446063      0.098405772    0.009337788   -0.28759143     6.4070965      6.4070965      6.4070965      0              0              0              0.83644787   
     26100   1.0393841      0.83708775    -4.3526532     -1.4524136      1.0265426      0.43861958     1.1620178      1.4789905      0.41635589     0.013101419   -0.07563398     6.4054636      6.4054636      6.4054636      0              0              0              0.83708775   
     26200   1.0630804      0.83657514    -4.3131734     -0.38635124     1.7797563      2.07223        1.6232525      1.6437864      0.36490797     0.12803977     0.12092377     6.4067716      6.4067716      6.4067716      0              0              0              0.83657514   
     26300   1.0396276      0.83463905    -4.2543025     -0.97787201     1.3087036      1.3585664      0.95360033     1.6139441      0.27954082     0.18500737     0.073220873    6.4117217      6.4117217      6.4117217      0              0              0              0.83463905   
     26400   1.0422932      0.83273633    -4.2770757     -1.3308711      1.0527165      0.63685233     1.0603916      1.4609055      0.19154774    -0.07646466    -0.37213249     6.4166013      6.4166013      6.4166013      0              0              0              0.83273633   
     26500   1.0576052      0.83097074    -4.3519937     -1.3320335      1.0889376      1.1441339      1.5368036      0.58587542     0.20191097    -0.23495179    -0.34455345     6.4211426      6.4211426      6.4211426      0              0              0              0.83097074   
     26600   1.0892457      0.82978438    -4.4667432     -2.3954765      0.33611358     0.59559803     0.057000981    0.35574174    -0.20033866     0.061491105   -0.013395989    6.4242013      6.4242013      6.4242013      0              0              0              0.82978438   
     26700   1.001292       0.83088942    -4.4073346     -2.8432178      0.052639513    0.00047074302 -0.038395187    0.19584298     0.35214678     0.61467619     0.28208413     6.4213521      6.4213521      6.4213521      0              0              0              0.83088942   
     26800   0.95263051     0.8337559     -4.37477       -1.432825       1.1522082      1.6163215      1.1185714      0.72173163     0.1326366     -0.087678571    0.076545006    6.4139847      6.4139847      6.4139847      0              0              0              0.8337559    
     26900   1.0183408      0.83548287    -4.4845052     -2.0302492      0.70969128     0.92631826     0.94889962     0.25385596    -0.20445637    -0.12003203    -0.17271402     6.4095624      6.4095624      6.4095624      0              0              0              0.83548287   
     27000   1.0140217      0.83750287    -4.4838087     -2.6465251      0.24657314     0.2366799      0.44068326     0.062356268   -0.19181562    -0.043122976    0.29892546     6.4044051      6.4044051      6.4044051      0              0              0              0.83750287   
     27100   0.95973447     0.84050572    -4.4059027     -1.3800348      1.2175598      1.7976802      0.6398311      1.2151681      0.20018499     0.055322246    0.32523923     6.396769       6.396769       6.396769       0              0              0              0.84050572   
     27200   0.93630646     0.84253592    -4.3586121     -2.4556808      0.38717888     0.015660601    1.0159169      0.12995919     0.053648416   -0.17393065     0.38886038     6.3916269      6.3916269      6.3916269      0              0              0              0.84253592   
     27300   0.94303752     0.84472259    -4.3469065     -1.0943919      1.416854       1.1301027      0.88351257     2.2369468     -0.12123647     0.3400582     -0.054554512    6.386107       6.386107       6.386107       0              0              0              0.84472259   
     27400   1.052122       0.84500095    -4.4817907     -1.7861522      0.86447164     0.61430078     0.78731796     1.1917962     -0.15493078     0.07356739    -0.015222605    6.3854057      6.3854057      6.3854057      0              0              0              0.84500095   
     27500   1.032319       0.84511453    -4.4242187     -0.85204088     1.5607281      2.2909758      0.85962453     1.531584      -0.43775704    -0.20992757     0.053730132    6.3851196      6.3851196      6.3851196      0              0              0              0.84511453   
     27600   1.0723091      0.84438531    -4.4778048     -2.0787002      0.61308761     0.22328604     0.91553417     0.70044262    -0.33318071    -0.054017764   -0.094014208    6.3869572      6.3869572      6.3869572      0              0              0              0.84438531   
[...]
    136000   0.094790161    0.27080672    -5.0818452     -5.7785848     -0.20635816    -0.040939086   -0.33120504    -0.24693036     0.039756983   -0.047156356    0.017057502    23.103693      5.9298119      5.9298119      0              0              0              0.27080672   
    137000   0.097455716    0.26811215    -5.1010598     -5.9718951     -0.24770833    -0.054913161   -0.32240928    -0.36580254    -0.046448798   -0.00020387552 -0.0067933444   23.335889      5.9298119      5.9298119      0              0              0              0.26811215   
    138000   0.10545143     0.26544439    -5.0874983     -5.6960763     -0.1848372      0.030213027   -0.28219124    -0.30253337     0.033792897   -0.014611069    0.0036797087   23.570419      5.9298119      5.9298119      0              0              0              0.26544439   
    139000   0.10195582     0.26280317    -5.1012548     -5.6464271     -0.1666032      0.072304146   -0.28494899    -0.28716475    -0.0272465      0.022496579    0.034761706    23.807306      5.9298119      5.9298119      0              0              0              0.26280317   
    140000   0.10259393     0.26018824    -5.0748735     -5.8389659     -0.21695295     0.012874583   -0.31085442    -0.35287902     0.018665358   -0.0080838633  -0.0085802162   24.046573      5.9298119      5.9298119      0              0              0              0.26018824   
    141000   0.10473705     0.25759932    -5.0891712     -5.9261187     -0.23260458     0.012125865   -0.3946266     -0.31531301    -0.007517082    0.02011296     0.040015217    24.288245      5.9298119      5.9298119      0              0              0              0.25759932   
    142000   0.093229462    0.25503617    -5.0982198     -5.6651844     -0.16371225    -0.013909884   -0.24269793    -0.23452893    -0.01316934    -0.007608597    0.085521369    24.532346      5.9298119      5.9298119      0              0              0              0.25503617   
    143000   0.095994984    0.25249851    -5.088582      -5.9272135     -0.22539027    -0.041365777   -0.32673962    -0.3080654      0.026059938    0.0002867052   0.071916183    24.7789        5.9298119      5.9298119      0              0              0              0.25249851   
    144000   0.093101529    0.24998611    -5.0782527     -5.7643089     -0.1874919     -0.063911154   -0.30321709    -0.19534744    -0.060691032   -0.012427075    0.069685862    25.027932      5.9298119      5.9298119      0              0              0              0.24998611   
    145000   0.090187962    0.24749871    -5.1031889     -5.9527855     -0.22144432    -0.039747831   -0.33051476    -0.29407038     0.06358959     0.00062351347  0.07935613     25.279467      5.9298119      5.9298119      0              0              0              0.24749871   
    146000   0.09978099     0.24503605    -5.0872191     -5.6977581     -0.16917783     0.016616046   -0.3072371     -0.21691245    -0.032521756   -0.04668381    -0.01255932     25.53353       5.9298119      5.9298119      0              0              0              0.24503605   
    147000   0.10145139     0.24259791    -5.0926214     -5.6803491     -0.16301342    -0.026158949   -0.22374325    -0.23913807    -0.0025870846  -0.008350141    0.046920273    25.790146      5.9298119      5.9298119      0              0              0              0.24259791   
    148000   0.098027574    0.24018402    -5.1026511     -5.6211        -0.14514866     0.016378261   -0.216377      -0.23544725     0.043823738    0.0081463924   0.076734835    26.049341      5.9298119      5.9298119      0              0              0              0.24018402   
    149000   0.10664295     0.23779414    -5.0854373     -6.2900145     -0.29480893    -0.10139458    -0.37334004    -0.40969216     0.012961628   -0.050450944    0.010793266    26.311142      5.9298119      5.9298119      0              0              0              0.23779414   
    150000   0.092505296    0.23542805    -5.0790099     -5.9642063     -0.21900384    -0.048244351   -0.31243816    -0.29632902     0.018550884   -0.0053723433   0.075955872    26.575573      5.9298119      5.9298119      0              0              0              0.23542805   
    151000   0.1043536      0.23308551    -5.0797407     -5.806653      -0.18703207     0.017991796   -0.33103878    -0.24804923    -0.00045991792  0.032754531   -0.035376005    26.842662      5.9298119      5.9298119      0              0              0              0.23308551   
    152000   0.09610768     0.23076627    -5.0885001     -5.8624891     -0.19246529    -0.028883666   -0.27486299    -0.27364922     0.038146039    0.02282839     0.0048232152   27.112435      5.9298119      5.9298119      0              0              0              0.23076627   
    153000   0.096826348    0.2284701     -5.0955211     -5.6379521     -0.1426784      0.033279835   -0.27588719    -0.18542784    -0.0087072763  -0.021752744    0.0046980794   27.38492       5.9298119      5.9298119      0              0              0              0.2284701    
    154000   0.11189764     0.22619679    -5.0876337     -5.6508842     -0.1501654      0.075008488   -0.25259432    -0.27291037    -0.011457468   -0.0049679558  -0.0021651582   27.660143      5.9298119      5.9298119      0              0              0              0.22619679   
    155000   0.10128979     0.22394609    -5.0861928     -5.826023      -0.18139738     0.017401636   -0.25130151    -0.31029226     0.039134384    0.014920816    0.046375168    27.938132      5.9298119      5.9298119      0              0              0              0.22394609   
    156000   0.086944805    0.22171779    -5.0891478     -5.8265686     -0.17479141     0.024198431   -0.26639813    -0.28217454     0.012551085   -0.034891878    0.038611825    28.218915      5.9298119      5.9298119      0              0              0              0.22171779   
    157000   0.094842435    0.21951166    -5.0772568     -5.6160389     -0.13576484     0.074105896   -0.21871053    -0.26268989     0.03105333     0.0079859427   0.0098800927   28.50252       5.9298119      5.9298119      0              0              0              0.21951166   
    158000   0.092006821    0.21732748    -5.0849985     -5.8112381     -0.17061389     0.050280975   -0.28729655    -0.27482609    -0.039380936    0.0028544604   0.015347204    28.788975      5.9298119      5.9298119      0              0              0              0.21732748   
    159000   0.10680411     0.21516504    -5.0824075     -5.7501411     -0.16179213    -0.029730068   -0.19577206    -0.25987428     0.0015222019  -0.020838718    0.027388026    29.078309      5.9298119      5.9298119      0              0              0              0.21516504   
    160000   0.097545625    0.21302411    -5.0930094     -5.6080325     -0.12793259     0.037261564   -0.19765689    -0.22340244     0.013198432   -0.0064854842   0.027900738    29.37055       5.9298119      5.9298119      0              0              0              0.21302411   
    161000   0.091535484    0.21090449    -5.0899247     -6.0138369     -0.20333663    -0.047055801   -0.30363859    -0.25931551    -0.034991178   -0.0067766669   0.039680759    29.665729      5.9298119      5.9298119      0              0              0              0.21090449   
    162000   0.10456435     0.20880595    -5.0793879     -5.6571648     -0.13929998     0.060418712   -0.2301207     -0.24819797    -0.037486546    0.024685344    0.025353411    29.963875      5.9298119      5.9298119      0              0              0              0.20880595   
    163000   0.098962842    0.2067283     -5.0805862     -5.8745388     -0.17696968     0.028932829   -0.24758682    -0.31225506    -0.05959714    -0.0024778434   0.026098197    30.265017      5.9298119      5.9298119      0              0              0              0.2067283    
    164000   0.095439117    0.20467132    -5.0951887     -5.6093879     -0.122178       0.10971766    -0.21968263    -0.25656903    -0.026413688    0.010009205    0.029840343    30.569185      5.9298119      5.9298119      0              0              0              0.20467132   
    165000   0.098995972    0.2026348     -5.0875915     -5.6714339     -0.13476944     0.021079619   -0.20531323    -0.22007471    -0.015315994   -0.00097807304  0.029219109    30.876411      5.9298119      5.9298119      0              0              0              0.2026348    
    166000   0.098081845    0.20061855    -5.0976216     -5.7192886     -0.14007809     0.030841064   -0.2597926     -0.19128275     0.042237763    0.0081626484   0.036358995    31.186724      5.9298119      5.9298119      0              0              0              0.20061855   
    167000   0.11358384     0.19862237    -5.0934171     -5.7102961     -0.14199747     0.061663887   -0.26056172    -0.22709456     0.011619505    0.029173078    0.034789184    31.500156      5.9298119      5.9298119      0              0              0              0.19862237   
    168000   0.098190194    0.19664604    -5.0778994     -5.8421172     -0.16281697    -0.038363347   -0.24298337    -0.20710418    -0.0014274278  -0.0048791493   0.018809423    31.816738      5.9298119      5.9298119      0              0              0              0.19664604   
    169000   0.10738622     0.19468938    -5.1015471     -5.8578043     -0.16221717    -0.03413961    -0.20218858    -0.25032332     0.034931985   -0.018556299    0.0074000538   32.136501      5.9298119      5.9298119      0              0              0              0.19468938   
    170000   0.11351896     0.19275219    -5.0966822     -5.7492106     -0.14403064     0.029699328   -0.23859066    -0.22320058     0.012762018    0.033512296    0.01250773     32.459478      5.9298119      5.9298119      0              0              0              0.19275219   
    171000   0.10229276     0.19083427    -5.0945851     -5.7379982     -0.13810938     0.015901989   -0.2278372     -0.20239294    -0.0057730998  -0.0082012888   0.033304644    32.785701      5.9298119      5.9298119      0              0              0              0.19083427   
    172000   0.099014483    0.18893544    -5.0943962     -5.9688871     -0.17558458     0.0021195229  -0.2899357     -0.23893757    -0.05441752    -0.047951457    0.036766964    33.115203      5.9298119      5.9298119      0              0              0              0.18893544   
    173000   0.11215983     0.1870555     -5.0737896     -5.4990411     -0.10078042     0.068548124   -0.19457236    -0.17631702     0.018021573    0.03308871     0.001378358    33.448017      5.9298119      5.9298119      0              0              0              0.1870555    
    174000   0.097635956    0.18519427    -5.0920791     -5.8334115     -0.14934303    -0.043754537   -0.19483005    -0.20944449    -0.020741157    0.012741617    0.020164436    33.784175      5.9298119      5.9298119      0              0              0              0.18519427   
    175000   0.10220372     0.18335155    -5.0812829     -5.9645205     -0.1726466     -0.041924849   -0.2276804     -0.24833456    -0.011433445    0.0078878422  -0.036050035    34.123711      5.9298119      5.9298119      0              0              0              0.18335155   
    176000   0.10432724     0.18152717    -5.0900484     -5.805858      -0.143822       0.011020125   -0.23290415    -0.20958199     0.0050936072  -0.0071399712   0.022364327    34.46666       5.9298119      5.9298119      0              0              0              0.18152717   
    177000   0.095363799    0.17972095    -5.1007038     -6.0397929     -0.17668524    -0.023074234   -0.24064123    -0.26634025     0.012328921    0.032540732    0.019245232    34.813056      5.9298119      5.9298119      0              0              0              0.17972095   
    178000   0.09834952     0.1779327     -5.0955622     -5.8676582     -0.1486357      0.0089022722  -0.23439348    -0.22041587    -0.0092255485  -0.018986201   -0.0053742116   35.162933      5.9298119      5.9298119      0              0              0              0.1779327    
    179000   0.094657684    0.17616224    -5.0981647     -6.2625385     -0.20909662    -0.099849779   -0.23421204    -0.29322805     0.010651011    0.031534745    0.045510621    35.516326      5.9298119      5.9298119      0              0              0              0.17616224   
    180000   0.11144717     0.17440939    -5.0903449     -5.6712473     -0.11847746     0.018237982   -0.17472309    -0.19894726     0.028445603    0.0079812547   0.0091458203   35.873271      5.9298119      5.9298119      0              0              0              0.17440939   
    181000   0.1001991      0.17267399    -5.0908587     -5.8051783     -0.13560665    -0.035680476   -0.17719825    -0.19394124    -0.033525402    0.015280197    0.016788802    36.233804      5.9298119      5.9298119      0              0              0              0.17267399   
    182000   0.093670137    0.17095585    -5.0826177     -5.8428828     -0.13988351    -0.020894821   -0.20607363    -0.19268208     0.030450926    0.012685174    0.065041736    36.59796       5.9298119      5.9298119      0              0              0              0.17095585   
    183000   0.099684452    0.16925482    -5.0795499     -5.5146656     -0.089842725    0.056536108   -0.17568593    -0.15037835     0.014978527    0.013534178    0.010802361    36.965775      5.9298119      5.9298119      0              0              0              0.16925482   
    184000   0.084224231    0.1675707     -5.0932196     -5.8084554     -0.12810634     0.049253063   -0.18475087    -0.24882122    -0.011155649    0.027840984    0.033489717    37.337287      5.9298119      5.9298119      0              0              0              0.1675707    
    185000   0.10015218     0.16590335    -5.0852585     -5.1210628     -0.027944377    0.11210555    -0.075098577   -0.1208401      0.0030381594  -0.014108349    0.0089157782   37.712533      5.9298119      5.9298119      0              0              0              0.16590335   
    186000   0.092568305    0.16425258    -5.1045212     -5.797048      -0.12403832     0.011358481   -0.15573733    -0.22773611    -0.025435565    0.044770462    0.027034941    38.091551      5.9298119      5.9298119      0              0              0              0.16425258   
    187000   0.097980327    0.16261824    -5.0900179     -5.8710706     -0.13708545     0.00027896897 -0.18176602    -0.2297693      0.015711292   -0.02310549     0.029646694    38.474377      5.9298119      5.9298119      0              0              0              0.16261824   
    188000   0.1004985      0.16100016    -5.0925304     -5.9032647     -0.14061583    -0.0042974425  -0.23570776    -0.18184228     0.0032229092  -0.033615784    0.035921567    38.861051      5.9298119      5.9298119      0              0              0              0.16100016   
    189000   0.09295437     0.15939818    -5.1043694     -6.2017727     -0.17912554    -0.070571865   -0.22207644    -0.24472832    -0.046874565   -0.013285206    0.020358257    39.251611      5.9298119      5.9298119      0              0              0              0.15939818   
    190000   0.099992902    0.15781214    -5.0807825     -5.9198815     -0.14179255    -0.045219571   -0.21189674    -0.16826134    -0.0087367124  -0.0020849398  -0.0064983171   39.646096      5.9298119      5.9298119      0              0              0              0.15781214   
    191000   0.097642685    0.15624189    -5.0967838     -5.6809138     -0.10366815     0.030285206   -0.16779923    -0.17349042    -0.022504309    0.0051146073   0.038706652    40.044546      5.9298119      5.9298119      0              0              0              0.15624189   
    192000   0.1044032      0.15468725    -5.1023112     -6.0231357     -0.15140315    -0.05311282    -0.20855349    -0.19254313     0.015598289   -0.019852385    0.021239625    40.447001      5.9298119      5.9298119      0              0              0              0.15468725   
    193000   0.099827041    0.15314809    -5.0794845     -6.2531338     -0.18414544    -0.077450497   -0.23262204    -0.24236378     0.012722857    0.003052734    0.037996706    40.8535        5.9298119      5.9298119      0              0              0              0.15314809   
    194000   0.091830595    0.15162424    -5.0867039     -5.5913068     -0.088446568    0.053918379   -0.15358383    -0.16567426    -0.012115955   -0.02068008     0.043205061    41.264084      5.9298119      5.9298119      0              0              0              0.15162424   
    195000   0.097506134    0.15011555    -5.095847      -6.0010624     -0.14339356     0.0091891762  -0.2466379     -0.19273196     0.02454561     0.029918813    0.044950221    41.678795      5.9298119      5.9298119      0              0              0              0.15011555   
    196000   0.10054843     0.14862188    -5.0739681     -5.6272664     -0.095032465   -0.0054903663  -0.14434466    -0.13526237    -0.0019124581   0.020692865   -0.020874909    42.097674      5.9298119      5.9298119      0              0              0              0.14862188   
    197000   0.10163495     0.14714307    -5.0951788     -5.859042      -0.1224703      0.016135815   -0.19917686    -0.18436984     0.035912057    0.0018860791   0.01620083     42.520763      5.9298119      5.9298119      0              0              0              0.14714307   
    198000   0.10285145     0.14567897    -5.0936042     -6.0383273     -0.14544442    -0.063298881   -0.17821565    -0.19481871    -0.01217379     0.0053239996   0.0247694      42.948103      5.9298119      5.9298119      0              0              0              0.14567897   
    199000   0.10609371     0.14422944    -5.0829294     -5.9946652     -0.14030648    -0.025280854   -0.19613566    -0.19950294     0.017054161    0.025128994    0.029121352    43.379739      5.9298119      5.9298119      0              0              0              0.14422944   
    200000   0.098397681    0.14279433    -5.090022      -5.6725465     -0.094683414    0.03655137    -0.14907407    -0.17152755    -0.0084384635  -0.01190765     0.017786616    43.815713      5.9298119      5.9298119      0              0              0              0.14279433   
Loop time of 47.2197 on 1 procs for 200000 steps with 200 atoms

Performance: 731897.276 tau/day, 4235.517 timesteps/s
51.7% CPU use with 1 MPI tasks x 1 OpenMP threads

MPI task timing breakdown:
Section |  min time  |  avg time  |  max time  |%varavg| %total
---------------------------------------------------------------
Pair    | 35.341     | 35.341     | 35.341     |   0.0 | 74.84
Bond    | 0.87386    | 0.87386    | 0.87386    |   0.0 |  1.85
Neigh   | 0.18263    | 0.18263    | 0.18263    |   0.0 |  0.39
Comm    | 1.4046     | 1.4046     | 1.4046     |   0.0 |  2.97
Output  | 1.5493     | 1.5493     | 1.5493     |   0.0 |  3.28
Modify  | 7.4464     | 7.4464     | 7.4464     |   0.0 | 15.77
Other   |            | 0.4219     |            |       |  0.89

Nlocal:            200 ave         200 max         200 min
Histogram: 1 0 0 0 0 0 0 0 0 0
Nghost:            751 ave         751 max         751 min
Histogram: 1 0 0 0 0 0 0 0 0 0
Neighs:          12400 ave       12400 max       12400 min
Histogram: 1 0 0 0 0 0 0 0 0 0

Total # of neighbors = 12400
Ave neighs/atom = 62
Ave special neighs/atom = 8.85
Neighbor list builds = 214
Dangerous builds = 0
System init for write_data ...
Generated 0 of 1 mixed pair_coeff terms from geometric mixing rule
WARNING: Not all mixed pair coeffs generated from mixing. Use write_data with 'pair ij' option to store all pair coeffs. (src/write_data.cpp:309)
Total wall time: 0:00:47
0.78125
