LAMMPS (23 Jun 2022)
OMP_NUM_THREADS environment is not set. Defaulting to 1 thread. (src/comm.cpp:98)
  using 1 OpenMP thread(s) per MPI task
Reading data file ...
  orthogonal box = (96.886895 96.886895 96.886895) to (103.1131 103.1131 103.1131)
  1 by 1 by 1 MPI processor grid
  reading atoms ...
  200 atoms
  scanning bonds ...
  4 = max bonds/atom
  reading bonds ...
  205 bonds
Finding 1-2 1-3 1-4 neighbors ...
  special bond factors lj:    0        0        0       
  special bond factors coul:  0        0        0       
     4 = max # of 1-2 neighbors
     4 = max # of 1-3 neighbors
    10 = max # of 1-4 neighbors
    12 = max # of special neighbors
  special bonds CPU = 0.000 seconds
  read_data CPU = 0.004 seconds
Finding 1-2 1-3 1-4 neighbors ...
  special bond factors lj:    0        1        1       
  special bond factors coul:  0        0        0       
     4 = max # of 1-2 neighbors
     4 = max # of 1-3 neighbors
    10 = max # of 1-4 neighbors
    12 = max # of special neighbors
  special bonds CPU = 0.000 seconds
Generated 0 of 1 mixed pair_coeff terms from geometric mixing rule
Neighbor list info ...
  update every 1 steps, delay 0 steps, check yes
  max neighbors/atom: 2000, page size: 100000
  master list distance cutoff = 5.5
  ghost atom cutoff = 5.5
  binsize = 2.75, bins = 3 3 3
  1 neighbor lists, perpetual/occasional/extra = 1 0 0
  (1) pair lj/cut, perpetual
      attributes: half, newton on
      pair build: half/bin/newton
      stencil: half/bin/3d
      bin: standard
Setting up Verlet run ...
  Unit style    : lj
  Current step  : 0
  Time step     : 0.002
WARNING: Inconsistent image flags (src/domain.cpp:819)
Per MPI rank memory allocation (min/avg/max) = 8.751 | 8.751 | 8.751 Mbytes
   Step          Temp         Density         PotEng        Enthalpy        Press           Pxx            Pyy            Pzz            Pxy            Pxz            Pyz             Lx             Ly             Lz             Xy             Yz             Xz          Density    
         0   1.5            0.91148903    -4.3032412      0.7427236      2.3261323      2.3263899      2.3154618      2.3365452     -0.44863405    -0.23599063     0.3220899      6.2262097      6.2262097      6.2262097      0              0              0              0.91148903   
      1000   1.4062542      0.79387116    -2.9499033      0.81076238     1.1993453      1.5426876      1.1945988      0.8607496     -0.10381866    -0.47000354     0.72316184     6.519649       6.519649       6.519649       0              0              0              0.79387116   
      2000   1.6008175      0.74765784    -2.7536329      0.92764184     0.87819522     1.0033593      0.73725639     0.89396993     0.44950332    -0.027359572    0.17401727     6.6513009      6.6513009      6.6513009      0              0              0              0.74765784   
      3000   1.5962995      0.77637448    -2.8371496      1.8944817      1.6580213      1.3303794      1.6113032      2.0323813     -0.13369579     0.24678215    -0.22028469     6.5682621      6.5682621      6.5682621      0              0              0              0.77637448   
      4000   1.5201748      0.78158845    -3.0446015     -0.011748751    0.5428429     -0.10380894     1.3870358      0.34530181    -0.035844336   -0.18674675    -0.13288375     6.5536239      6.5536239      6.5536239      0              0              0              0.78158845   
      5000   1.5581661      0.79154885    -2.874692       1.5223017      1.4905806      1.1205905      1.42458        1.9265712      0.09090254     0.15880988     0.71043312     6.5260188      6.5260188      6.5260188      0              0              0              0.79154885   
      6000   1.4997111      0.7839045     -2.9009329      0.52742126     0.84806731     1.061437       0.6891605      0.79360441     0.27143808     0.19883039     1.1624811      6.5471633      6.5471633      6.5471633      0              0              0              0.7839045    
      7000   1.390169       0.78957413    -2.9014981      0.36560968     0.85581262     1.2177848      0.54845221     0.80120088     0.21742719     0.44926743    -0.21510003     6.5314548      6.5314548      6.5314548      0              0              0              0.78957413   
      8000   1.401225       0.80386612    -3.1550708      0.46356336     1.1161359      1.4154925      0.61121841     1.3216967     -0.36007081    -0.14398324     0.39501872     6.4925154      6.4925154      6.4925154      0              0              0              0.80386612   
      9000   1.3397018      0.79431836    -2.9928658      0.99461134     1.4355299      1.3162046      1.2470907      1.7432944      0.64205722    -0.036834131   -0.21016084     6.5184253      6.5184253      6.5184253      0              0              0              0.79431836   
     10000   1.4628429      0.79331774    -2.92981        1.0335058      1.2837487      1.3588741      1.5659586      0.92641356    -0.31761571    -0.0045689844   1.0442738      6.5211647      6.5211647      6.5211647      0              0              0              0.79331774   
     11000   1.407489       0.82876763    -3.1927621      0.56607975     1.2493027      0.81362646     1.6317829      1.3024989      0.47650979     0.58972935    -0.1245287      6.4268274      6.4268274      6.4268274      0              0              0              0.82876763   
     12000   1.3240897      0.76221848    -2.9538406      0.51954537     1.0374362      0.70592199     1.1620507      1.2443359     -0.18265691     0.60546071     0.0061262971   6.6086751      6.6086751      6.6086751      0              0              0              0.76221848   
     13000   1.4889467      0.78052609    -2.9720389      1.2798987      1.4402017      2.0802364      1.4401037      0.80026488    -0.26570958    -0.49230104    -0.044068867    6.5565959      6.5565959      6.5565959      0              0              0              0.78052609   
     14000   1.3558437      0.83041286    -3.2814581      0.23008265     1.1232798      1.4586058      0.79146016     1.1197735     -0.18075582    -0.46004133    -0.097746265    6.4225802      6.4225802      6.4225802      0              0              0              0.83041286   
     15000   1.3569438      0.80258725    -2.9891726      1.5529273      1.8363643      1.7515914      2.842538       0.91496363    -0.13096384    -0.38168396     0.1195961      6.495962       6.495962       6.495962       0              0              0              0.80258725   
     16000   1.4380042      0.81024701    -3.0356841      2.2702451      2.3274036      2.433451       2.648749       1.9000108      0.44107064     0.57573829    -0.4958561      6.475427       6.475427       6.475427       0              0              0              0.81024701   
     17000   1.338049       0.79686636    -3.1890854     -0.84617623     0.2505572      0.90346201     0.2121219     -0.36391231     0.43195727    -0.15558198    -0.37715157     6.5114703      6.5114703      6.5114703      0              0              0              0.79686636   
     18000   1.3509374      0.79385142    -3.2777568     -0.18002925     0.78046679     0.91655243     0.64353318     0.78131477    -0.16566498    -0.22950665     0.57104871     6.5197031      6.5197031      6.5197031      0              0              0              0.79385142   
     19000   1.2819193      0.82224635    -3.436152      -0.23945434     0.95936199     1.8023195      0.26393255     0.81183388    -0.51667866    -0.21296178    -0.20902839     6.4437731      6.4437731      6.4437731      0              0              0              0.82224635   
     20000   1.2126991      0.82292581    -3.158267       0.43043454     1.3307071      2.0294207      0.68413296     1.2785675      0.48066372     0.36815831    -0.45469445     6.4419992      6.4419992      6.4419992      0              0              0              0.82292581   
     21000   1.5811115      0.81404485    -3.2363741      0.8094768      1.2477398      1.5994735      0.92994398     1.2138021     -0.2059209      0.30000817    -0.21718516     6.4653412      6.4653412      6.4653412      0              0              0              0.81404485   
     22000   1.2787643      0.81402032    -3.3486875      0.37022464     1.3396972      1.7928361      0.66945257     1.5568031     -0.31870137     0.020698167    1.1552937      6.4654061      6.4654061      6.4654061      0              0              0              0.81402032   
     23000   1.2221621      0.81613808    -3.3262046     -0.42660293     0.79797884     0.65959656     0.28347897     1.450861       0.6999289      0.25952778     0.48512752     6.459809       6.459809       6.459809       0              0              0              0.81613808   
     24000   1.3603333      0.80813712    -3.2159264     -0.40330749     0.57474817     0.69037486     1.053453      -0.019583316   -0.21981895    -0.5399441      0.48257191     6.4810575      6.4810575      6.4810575      0              0              0              0.80813712   
     25000   1.3292617      0.83746353    -3.2786604      1.2961691      1.9725361      1.8779363      1.8017632      2.2379088      0.078044125    0.22322444     0.11403035     6.4045053      6.4045053      6.4045053      0              0              0              0.83746353   
     26000   1.1486896      0.82229241    -3.2377167     -0.72867253     0.59401279     0.30071178     0.60195508     0.87937152    -0.34273914    -0.15849574     0.25535238     6.4436528      6.4436528      6.4436528      0              0              0              0.82229241   
     27000   1.0692388      0.82970944    -3.3140684     -0.51888583     0.90464251     1.1387017      1.8540649     -0.27883899     0.037028374   -0.43177519     0.54551343     6.4243947      6.4243947      6.4243947      0              0              0              0.82970944   
     28000   1.1999108      0.88589278    -3.6691072      0.69687328     2.0738859      1.6272276      2.2333502      2.3610799     -0.29204597    -0.0034669546   0.46711986     6.2856063      6.2856063      6.2856063      0              0              0              0.88589278   
     29000   1.172506       0.81710088    -3.362096      -0.8162456      0.59119857     1.8538354      0.14234723    -0.22258696    -0.3566894      0.46285265     0.57099266     6.4572708      6.4572708      6.4572708      0              0              0              0.81710088   
     30000   1.0825077      0.81956846    -3.360962      -1.082066       0.49416494     0.73753326     0.49582836     0.24913322     0.17417886     0.52172718     0.0063702486   6.4507837      6.4507837      6.4507837      0              0              0              0.81956846   
     31000   1.0336115      0.84402754    -3.4442812     -0.22669917     1.28516        1.1781423      1.2953253      1.3820125     -0.1274613     -0.12324451    -0.28472644     6.3878595      6.3878595      6.3878595      0              0              0              0.84402754   
     32000   1.195503       0.8475265     -3.4440957      0.099875278    1.3557979      1.5286328      1.1729362      1.3658247      0.051887118    0.052739797   -0.017271053    6.3790567      6.3790567      6.3790567      0              0              0              0.8475265    
     33000   1.1762978      0.82124504    -3.4961763     -1.0684103      0.50181174     0.32423586     0.96991827     0.2112811     -0.18175147     0.42215306     1.1453685      6.446391       6.446391       6.446391       0              0              0              0.82124504   
     34000   1.0804168      0.81331281    -3.4196759     -0.95335782     0.63127564    -0.21526528     1.4783112      0.63078096    -0.02992641     0.32809554    -0.20165206     6.4672804      6.4672804      6.4672804      0              0              0              0.81331281   
     35000   1.152688       0.86855692    -3.7640622     -0.99383154     0.82895378     0.97247499     1.2710349      0.24335147    -0.021479808   -0.53556623    -0.41844685     6.32715        6.32715        6.32715        0              0              0              0.86855692   
     36000   1.1967683      0.8366527     -3.6031382     -0.77118577     0.79541014     0.1237567      1.1301834      1.1322903     -0.66631539    -0.19169892     0.37239151     6.4065736      6.4065736      6.4065736      0              0              0              0.8366527    
     37000   1.0595073      0.8544645     -3.4958581      0.18112729     1.6278875      0.4622852      2.1125956      2.3087817      0.0095732705   0.64152451     0.47270095     6.3617444      6.3617444      6.3617444      0              0              0              0.8544645    
     38000   1.1764865      0.87461041    -3.708111      -0.48042858     1.1702099      1.6900121      1.2955154      0.52510218     0.28612602    -0.017706156    0.35807482     6.3125187      6.3125187      6.3125187      0              0              0              0.87461041   
     39000   1.0740317      0.8528149     -3.5660725     -0.12837709     1.4224202      0.31602353     1.8672098      2.0840272      0.21348496    -0.15675558    -0.43008742     6.3658436      6.3658436      6.3658436      0              0              0              0.8528149    
     40000   1.0765585      0.84903736    -3.687789      -0.6982699      1.0672828      1.0289898      1.1533086      1.0195502     -0.13810571     0.18462583    -0.67298616     6.3752707      6.3752707      6.3752707      0              0              0              0.84903736   
     41000   1.1090554      0.85464241    -3.5696688     -0.1613747      1.3620116      1.1308737      1.9394012      1.0157599     -0.386364       0.87416131    -0.4847867      6.361303       6.361303       6.361303       0              0              0              0.85464241   
     42000   1.1596932      0.85920082    -3.6030215     -0.50775973     1.0657368      0.63176509     1.5902594      0.97518605    -0.31127639     0.64357292    -0.56555682     6.3500332      6.3500332      6.3500332      0              0              0              0.85920082   
     43000   1.0624462      0.86332916    -3.7546775     -1.1402596      0.80738312     0.8874623      0.81803288     0.71665419    -0.60935444    -0.056387678   -0.016179292    6.3398954      6.3398954      6.3398954      0              0              0              0.86332916   
     44000   0.96756789     0.87633728    -3.8154829     -0.52841544     1.4682412      1.5622589      1.5551598      1.287305       0.060004614    0.21953116    -0.06226078     6.3083696      6.3083696      6.3083696      0              0              0              0.87633728   
     45000   1.040183       0.85571844    -3.7451452     -1.1723324      0.7937486      1.3266654      0.030066316    1.0245141      0.074696472   -0.46759174    -0.089420715    6.3586355      6.3586355      6.3586355      0              0              0              0.85571844   
     46000   1.1192441      0.86821234    -3.7335904     -0.82358273     0.97834576     1.5926857     -0.64280403     1.9851556     -0.17707559     0.29042264     0.36179196     6.327987       6.327987       6.327987       0              0              0              0.86821234   
     47000   1.0643102      0.88766165    -3.9782469     -1.2454758      0.92340057     0.80771626     0.82420334     1.1382821      0.46552034     0.063829367   -0.33002038     6.2814283      6.2814283      6.2814283      0              0              0              0.88766165   
     48000   1.0162504      0.87603822    -3.8388769     -0.65088998     1.3309674      1.1079334      1.5802118      1.304757      -0.04927408    -0.10238897     0.30920843     6.3090874      6.3090874      6.3090874      0              0              0              0.87603822   
     49000   1.0507541      0.87386088    -3.947545      -2.4871989     -0.085721248   -0.14741203    -0.54537798     0.43562627     0.48693733    -0.35940337    -0.37748758     6.314323       6.314323       6.314323       0              0              0              0.87386088   
     50000   0.92047962     0.88183891    -3.9746543     -0.84951242     1.4039886      2.1609839      0.96209363     1.0888883      0.213147       0.16083982     0.081868739    6.2952233      6.2952233      6.2952233      0              0              0              0.88183891   
     51000   0.95936164     0.87918718    -3.9438833     -1.9181144      0.47469845     0.77582688     0.75794493    -0.10967647    -0.085598785   -0.65413861     0.42690765     6.301546       6.301546       6.301546       0              0              0              0.87918718   
     52000   1.0450288      0.90425278    -4.0370338     -1.595736       0.72471119     0.40604507     1.2956903      0.47239823     0.18565332     0.43072199     0.1777085      6.2427739      6.2427739      6.2427739      0              0              0              0.90425278   
     53000   0.95728791     0.8797238     -4.04645       -1.7675969      0.67986729     0.63658486     0.20162311     1.2013939     -0.10514937    -0.19312742    -0.17684747     6.3002645      6.3002645      6.3002645      0              0              0              0.8797238    
     54000   0.93659043     0.87686378    -3.8474061     -1.5138439      0.745893       1.064319       0.65282602     0.52053402    -0.08068864     0.023887297    0.37103022     6.3071068      6.3071068      6.3071068      0              0              0              0.87686378   
     55000   0.97050718     0.90794137    -4.0904826     -0.38821434     1.860278       2.1595456      2.4103263      1.0109622      0.13117568    -0.31894904     0.39215939     6.2343085      6.2343085      6.2343085      0              0              0              0.90794137   
     56000   0.92979077     0.88966651    -3.9729914     -1.655735       0.75180348    -0.19157446     1.2907413      1.1562436     -0.69665102     0.47434954     0.53249155     6.2767064      6.2767064      6.2767064      0              0              0              0.88966651   
     57000   1.0403389      0.9061766     -4.3531829     -1.7658261      0.85234234     0.43788894     1.6137703      0.50536776     0.30454995    -0.15043609     0.021620857    6.238353       6.238353       6.238353       0              0              0              0.9061766    
     58000   1.0061289      0.91911139    -4.1525982     -0.45788045     1.8324327      1.788501       1.3556611      2.3531361     -0.29063164     0.57829502    -0.0028090689   6.2089502      6.2089502      6.2089502      0              0              0              0.91911139   
     59000   0.9338453      0.90708503    -4.1423788     -1.4575779      1.0646183      1.5245749      1.0135032      0.65577682    -0.23927169     0.73863339     0.18046633     6.2362698      6.2362698      6.2362698      0              0              0              0.90708503   
     60000   0.86326958     0.90766679    -4.2122763     -3.1573154     -0.1926473      0.58675156    -0.99233111    -0.17236235    -0.016211417   -0.13587893    -0.46593908     6.2349371      6.2349371      6.2349371      0              0              0              0.90766679   
     61000   0.96153061     0.90974077    -4.0266094     -0.60826325     1.6402309      1.4508362      1.9635012      1.5063553     -0.82904027     0.57637788     0.41779045     6.2301955      6.2301955      6.2301955      0              0              0              0.90974077   
     62000   0.97775755     0.89104918    -4.1137486     -1.196423       1.1810634      0.95561137     0.81075381     1.7768249     -0.17520651     0.25104384     0.06061177     6.2734581      6.2734581      6.2734581      0              0              0              0.89104918   
     63000   0.86744809     0.91253042    -4.2321899     -1.1146661      1.5121936      1.7224126      1.3484189      1.4657491      0.02451854     0.17343589    -0.15935237     6.2238403      6.2238403      6.2238403      0              0              0              0.91253042   
     64000   0.90404874     0.88624534    -4.2833516     -2.9814686     -0.038196995   -0.38058279     0.35406757    -0.08807576    -0.31333316     0.099905376    0.12503656     6.2847727      6.2847727      6.2847727      0              0              0              0.88624534   
     65000   0.81317773     0.91852602    -4.3215419     -2.3013958      0.67342845     0.92861883     0.32217961     0.76948691    -0.56990565    -0.42078788    -0.22824722     6.2102689      6.2102689      6.2102689      0              0              0              0.91852602   
     66000   0.81112748     0.93957774    -4.2931319     -1.6189441      1.2501339      1.432455       0.6451848      1.6727619      0.064150704    0.67729599     0.64502758     6.1635367      6.1635367      6.1635367      0              0              0              0.93957774   
     67000   0.91938737     0.91609563    -4.3486213     -1.7660705      1.0080093      0.72011892     1.1671022      1.1368068     -0.21913238    -0.54912014     0.38177664     6.215756       6.215756       6.215756       0              0              0              0.91609563   
     68000   0.74301662     0.92834534    -4.3449502     -2.3370782      0.75864358     0.73382542     0.58745611     0.95464921    -0.16748551     0.14147801     0.89250401     6.1882954      6.1882954      6.1882954      0              0              0              0.92834534   
     69000   0.78389838     0.90481187    -4.2199578     -2.685274       0.299999       0.99911985    -0.25619886     0.157076      -0.47578319    -0.2194108      0.0085844999   6.2414879      6.2414879      6.2414879      0              0              0              0.90481187   
     70000   0.85399903     0.93527103    -4.4091786     -1.1487195      1.688475       1.5567193      1.3822099      2.1264957     -0.17363677    -0.21855194    -0.18315449     6.1729828      6.1729828      6.1729828      0              0              0              0.93527103   
     71000   0.79771391     0.92295381    -4.3244686     -2.1014197      0.86628516     1.2309278      0.26981258     1.0981151      0.037035433   -0.11286371    -0.27817431     6.2003219      6.2003219      6.2003219      0              0              0              0.92295381   
     72000   0.77550002     0.95038154    -4.484385      -1.3960477      1.6682683      2.3659527      1.1819698      1.4568824      0.045595294   -0.24609242    -0.67484641     6.1400922      6.1400922      6.1400922      0              0              0              0.95038154   
     73000   0.75306638     0.91843245    -4.2683328     -1.6350821      1.2601722      1.9962641      0.41240242     1.37185        0.5196233      0.36590038     0.29317425     6.2104798      6.2104798      6.2104798      0              0              0              0.91843245   
     74000   0.76473258     0.95564069    -4.5613059     -1.6520973      1.5358408      1.7795786      1.4392151      1.3887286     -1.0228579     -0.0063535625   0.15454933     6.128808       6.128808       6.128808       0              0              0              0.95564069   
     75000   0.68326956     0.94322542    -4.4749929     -1.7140858      1.4929777      1.0999316      1.6090749      1.7699267     -0.52188474    -0.091084724    0.82745137     6.1555812      6.1555812      6.1555812      0              0              0              0.94322542   
     76000   0.67704439     0.9298823     -4.5628941     -2.673895       0.74264658     0.39889898     0.96009043     0.86895034     0.18553612     0.067610353    0.19301908     6.1848841      6.1848841      6.1848841      0              0              0              0.9298823    
     77000   0.6768485      0.93293462    -4.4399411     -2.4767075      0.80829222     1.0708062      0.78963433     0.56443609     0.019891188    0.75826984     0.1059764      6.1781316      6.1781316      6.1781316      0              0              0              0.93293462   
     78000   0.75566908     0.94612736    -4.4449571     -1.7216779      1.3722658      1.8479452      1.6286367      0.64021543    -0.26208485    -0.9349841     -0.14820913     6.1492813      6.1492813      6.1492813      0              0              0              0.94612736   
     79000   0.74934966     0.9498114     -4.715979      -2.8304523      0.66238325     0.41274089     1.3318267      0.24258217     0.36934779    -0.33742988    -0.26518295     6.1413206      6.1413206      6.1413206      0              0              0              0.9498114    
     80000   0.63603771     0.95171534    -4.6418879     -2.2202737      1.2738519      1.8944843      1.1055635      0.82150801     0.40395453     0.30772027     0.3941064      6.1372225      6.1372225      6.1372225      0              0              0              0.95171534   
     81000   0.6831462      0.95315191    -4.5906518     -2.5204947      0.91031327     1.4069906      0.3970164      0.92693281    -0.034134363    0.13959729     0.60299089     6.1341377      6.1341377      6.1341377      0              0              0              0.95315191   
     82000   0.68525283     0.95572199    -4.7000668     -2.3270012      1.1732146      1.6053542      1.2743918      0.63989768    -0.17544564     0.20155482     0.058873865    6.1286342      6.1286342      6.1286342      0              0              0              0.95572199   
     83000   0.63111118     0.95387829    -4.6946933     -2.8156432      0.81263201     0.49201358     1.2023317      0.7435508     -0.44903185     0.77086382     0.19171293     6.1325802      6.1325802      6.1325802      0              0              0              0.95387829   
     84000   0.65109763     0.96279301    -4.7142975     -2.8153409      0.81154124     0.53137384     1.6578881      0.24536177    -0.53428136     0.27082407     0.2206492      6.1135939      6.1135939      6.1135939      0              0              0              0.96279301   
     85000   0.71382552     0.97914278    -4.7483489     -1.3856607      2.0448984      2.215484       1.7081307      2.2110804     -0.18416313     0.50628511     0.16460017     6.0793743      6.0793743      6.0793743      0              0              0              0.97914278   
     86000   0.63785426     0.95422877    -4.7347416     -3.0723824      0.61622511     1.1618601      1.0202029     -0.33338767    -0.23383614     0.17234779     0.2499711      6.1318293      6.1318293      6.1318293      0              0              0              0.95422877   
     87000   0.64823424     0.96927975    -4.8608656     -2.9691878      0.81436087     1.3837049     -0.5480676      1.6074453      0.12077192    -0.18018466     0.38292548     6.0999253      6.0999253      6.0999253      0              0              0              0.96927975   
     88000   0.62702325     0.96125588    -4.6854037     -2.8755519      0.76377864     0.25425437     0.41618313     1.6208984     -0.24655824     0.12035144    -0.4724767      6.1168508      6.1168508      6.1168508      0              0              0              0.96125588   
     89000   0.63367372     0.98333012    -4.9355709     -2.5554966      1.2821877      1.8038408      0.6613355      1.3813867      0.0070780529  -0.12584389     0.30216078     6.0707327      6.0707327      6.0707327      0              0              0              0.98333012   
     90000   0.58727035     0.97206358    -4.8957268     -2.7630289      1.1100938      0.93508224     0.66201347     1.7331858      0.54677035    -0.10786708     0.046640001    6.0940966      6.0940966      6.0940966      0              0              0              0.97206358   
     91000   0.51663387     0.99073359    -4.938471      -2.3309698      1.6540074      1.5555833      1.4219027      1.9845361      0.41210973     0.20857482     0.069733813    6.0555733      6.0555733      6.0555733      0              0              0              0.99073359   
     92000   0.56402802     0.96724778    -4.8953198     -3.5917829      0.40600228     0.62937788     0.23146448     0.35716448     0.30791155     0.15948237     0.20618811     6.1041938      6.1041938      6.1041938      0              0              0              0.96724778   
     93000   0.53559852     0.97988571    -4.9588228     -3.1643641      0.88642054     1.0582992      0.84583832     0.75512406     0.12328779     0.053329563   -0.24509486     6.0778375      6.0778375      6.0778375      0              0              0              0.97988571   
     94000   0.50305033     0.98393953    -5.0552235     -3.6914866      0.54826386     0.48388295     0.28722653     0.8736821      0.083342945    0.11461504    -0.12110595     6.0694791      6.0694791      6.0694791      0              0              0              0.98393953   
     95000   0.55793321     0.98714541    -5.0445873     -3.4937977      0.64440333     0.44130898     0.9353067      0.55659433     0.46674958     0.278071      -0.16528261     6.0629015      6.0629015      6.0629015      0              0              0              0.98714541   
     96000   0.51856908     0.99760699    -4.9939954     -2.5107082      1.5502113      1.787598       1.4467089      1.4163269     -0.10805764    -0.85040052    -0.056703344    6.0416338      6.0416338      6.0416338      0              0              0              0.99760699   
     97000   0.49451101     0.98121921    -5.0316866     -3.3174129      0.87080173     1.1627777      0.46041635     0.98921114    -0.013010823    0.57176952    -0.4490382      6.075083       6.075083       6.075083       0              0              0              0.98121921   
     98000   0.49287723     0.98852091    -5.0914703     -3.7209987      0.57051347     1.0565687     -0.075004403    0.72997606    -0.21464347    -0.26708931    -0.22479926     6.0600881      6.0600881      6.0600881      0              0              0              0.98852091   
     99000   0.48044421     0.99306334    -5.1274507     -3.3532641      0.95435512     1.3895265      0.52791391     0.94562496     0.22296273     0.39942284    -0.20589951     6.0508341      6.0508341      6.0508341      0              0              0              0.99306334   
    100000   0.48017452     0.98716011    -5.1190485     -3.7414048      0.59317845     0.61813939     0.96633808     0.19505789     0.19748349     0.29643689    -0.50954023     6.0628715      6.0628715      6.0628715      0              0              0              0.98716011   
    101000   0.53392775     1.0091327     -5.1935419     -2.9298416      1.3456446      1.8738207      1.5126718      0.65044125    -0.22623066     0.22522881     0.056071955    6.0185445      6.0185445      6.0185445      0              0              0              1.0091327    
    102000   0.50309355     1.0043262     -5.1364392     -3.0192086      1.2475224      1.560395       1.1320013      1.0501709      0.099488338   -0.25246869    -0.18259059     6.0281303      6.0281303      6.0281303      0              0              0              1.0043262    
    103000   0.44676879     0.98863118    -5.1488214     -4.3231728      0.14276388     0.07079351     0.29714189     0.060356226    0.12280174    -0.052389338   -0.20744609     6.0598628      6.0598628      6.0598628      0              0              0              0.98863118   
    104000   0.44655581     1.0092239     -5.2564651     -3.156168       1.315489       1.6848162      1.1623732      1.0992776      0.24422409     0.19157279    -0.073920638    6.0183631      6.0183631      6.0183631      0              0              0              1.0092239    
    105000   0.42417356     0.99292446    -5.1409029     -3.8295278      0.61226977     1.3378705     -0.0058893103   0.50482815     0.13794093    -0.29680115    -0.068671479    6.0511162      6.0511162      6.0511162      0              0              0              0.99292446   
    106000   0.37383644     1.0159547     -5.1160212     -2.2537741      2.1282368      2.6963209      2.1460735      1.542316       0.36800777     0.10748321    -0.10130246     6.0050429      6.0050429      6.0050429      0              0              0              1.0159547    
    107000   0.42702558     1.0037284     -5.2393484     -3.725716       0.79960355     1.0449201      0.73725085     0.6166397     -0.0063133345  -0.14764976     0.07090454     6.0293269      6.0293269      6.0293269      0              0              0              1.0037284    
    108000   0.40404079     1.000532      -5.3066027     -4.2420595      0.41977984     0.97083746    -0.10513228     0.39363433    -0.4194456      0.25155122    -0.19106593     6.0357405      6.0357405      6.0357405      0              0              0              1.000532     
    109000   0.40131458     1.0247815     -5.2838785     -2.8935225      1.6688976      1.9284644      1.6590338      1.4191946      0.017546846   -0.017714836   -0.05185036     5.987752       5.987752       5.987752       0              0              0              1.0247815    
    110000   0.40129041     1.0070098     -5.232159      -3.4655962      1.0689289      0.94292633     0.9891313      1.274729      -0.22591089     0.25130028    -0.1199439      6.0227707      6.0227707      6.0227707      0              0              0              1.0070098    
    111000   0.39470629     1.0154327     -5.3534416     -3.7634426      0.92395121     0.82083703     0.87394002     1.0770766     -0.097919431    0.48587955    -0.3631877      6.0060717      6.0060717      6.0060717      0              0              0              1.0154327    
    112000   0.36485293     1.0240035     -5.4703338     -3.8487184      1.0026599      1.240281       0.46469801     1.3030008     -0.24693794     0.22308452    -0.56004251     5.989268       5.989268       5.989268       0              0              0              1.0240035    
    113000   0.3934102      1.0178983     -5.4205609     -4.1148425      0.66492234     0.97320873     0.35917116     0.66238713    -0.14742811     0.18214379    -0.0057696948   6.0012184      6.0012184      6.0012184      0              0              0              1.0178983    
    114000   0.37288613     1.0259726     -5.429544      -3.5404202      1.2429111      0.97324208     1.4356381      1.319853      -0.14158998     0.62110607    -0.43412957     5.9854339      5.9854339      5.9854339      0              0              0              1.0259726    
    115000   0.33574692     1.0208743     -5.4358452     -3.7532407      1.0965139      0.85477628     1.0628311      1.3719343      0.011792245   -0.02929088    -0.017716774    5.9953811      5.9953811      5.9953811      0              0              0              1.0208743    
    116000   0.36454394     1.0188739     -5.4742641     -4.135446       0.73612369     0.59145742     0.69066961     0.92624404     0.41292132    -0.13176013    -0.23085505     5.9993022      5.9993022      5.9993022      0              0              0              1.0188739    
    117000   0.32207664     1.0335587     -5.4782684     -3.5893887      1.3231245      1.4333398      1.0768808      1.459153      -0.47492426     0.25719257    -0.43671714     5.970754       5.970754       5.970754       0              0              0              1.0335587    
    118000   0.37065956     1.023572      -5.4783175     -3.9337976      0.92243435     1.0537773      0.49829338     1.2152324     -0.15397543    -0.2299341     -0.48411231     5.9901094      5.9901094      5.9901094      0              0              0              1.023572     
    119000   0.29903793     1.0265086     -5.5077914     -4.0248489      0.96737088     1.071995       0.83688292     0.99323475     0.27892773     0.59345124    -0.25499934     5.9843919      5.9843919      5.9843919      0              0              0              1.0265086    
    120000   0.3120284      1.0306437     -5.5006929     -4.1330536      0.84506868     1.2668085      0.35815176     0.91024574     0.36976513     0.093239331   -0.37390381     5.9763778      5.9763778      5.9763778      0              0              0              1.0306437    
    121000   0.27804932     1.0320521     -5.5957986     -4.3365879      0.79207386     0.75808968     0.76471797     0.85341393     0.16065231     0.095948983   -0.58579662     5.9736579      5.9736579      5.9736579      0              0              0              1.0320521    
    122000   0.29405733     1.0256061     -5.5470982     -4.5141261      0.55391265     0.55884921     0.28723502     0.81565373     0.086187906    0.13432952    -0.57390172     5.9861467      5.9861467      5.9861467      0              0              0              1.0256061    
    123000   0.29715631     1.0352861     -5.5733552     -3.8295745      1.2237787      1.5339676      0.5922342      1.5451342      0.19404023    -0.0093148251  -0.48737325     5.9674313      5.9674313      5.9674313      0              0              0              1.0352861    
    124000   0.24783221     1.0336958     -5.5588465     -4.4658961      0.6794772      0.87333998     0.56246475     0.60262688    -0.27207274     0.20592378    -0.25960195     5.97049        5.97049        5.97049        0              0              0              1.0336958    
    125000   0.2576638      1.0320016     -5.5924641     -4.0134036      1.1206573      1.2107938      0.37265197     1.7785263      0.10529729     0.25926938    -0.29374081     5.9737554      5.9737554      5.9737554      0              0              0              1.0320016    
    126000   0.22378798     1.0405827     -5.6290133     -4.1488167      1.0842806      1.2032581      0.76697657     1.282607      -0.053928156    0.13589699    -0.33711848     5.9572893      5.9572893      5.9572893      0              0              0              1.0405827    
    127000   0.24069193     1.0347184     -5.6292464     -4.0747079      1.1243681      1.2547572      0.90458739     1.2137596      0.26212868     0.071803699   -0.44750636     5.9685226      5.9685226      5.9685226      0              0              0              1.0347184    
    128000   0.1981942      1.0483916     -5.6031611     -3.7156136      1.5170632      1.6354253      1.0250855      1.8906789     -0.036467669   -0.063166305   -0.28622648     5.9424616      5.9424616      5.9424616      0              0              0              1.0483916    
    129000   0.21057688     1.036008      -5.634744      -4.6674976      0.61497464     0.83708937     0.50731198     0.50052256     0.13376584    -0.0015890525  -0.3410837      5.9660451      5.9660451      5.9660451      0              0              0              1.036008     
    130000   0.18633709     1.0382534     -5.6550305     -4.4115451      0.91118753     1.584516       0.03318729     1.1158593     -0.13532781    -0.26460504    -0.21401238     5.9617409      5.9617409      5.9617409      0              0              0              1.0382534    
    131000   0.1836863      1.0491088     -5.6888102     -4.0534563      1.2982264      1.3056692      1.09305        1.4959601     -0.053894224   -0.0099058185  -0.030183735    5.9411072      5.9411072      5.9411072      0              0              0              1.0491088    
    132000   0.18758437     1.0395766     -5.6944701     -4.6487715      0.7236672      0.8933873      0.72074824     0.55686605     0.017710385    0.13597266    -0.37144675     5.9592106      5.9592106      5.9592106      0              0              0              1.0395766    
    133000   0.16880389     1.0494159     -5.7046538     -4.230254       1.1662444      1.0509014      0.8815596      1.5662723     -0.00011759398  0.34163563    -0.36311349     5.9405276      5.9405276      5.9405276      0              0              0              1.0494159    
    134000   0.17174745     1.0482401     -5.7171014     -4.1877818      1.213087       1.2384919      1.1548252      1.2459437     -0.14875251     0.38819341    -0.45128118     5.9427478      5.9427478      5.9427478      0              0              0              1.0482401    
    135000   0.15513413     1.0500661     -5.7545654     -4.4418353      1.0321122      1.0069121      0.76417997     1.3252446     -0.067291729    0.051148235   -0.2741907      5.9393012      5.9393012      5.9393012      0              0              0              1.0500661    
    136000   0.14051091     1.0478762     -5.7730182     -4.5055907      1.0075949      1.2011127      0.9832444      0.83842774     0.030455676    0.15799162    -0.25629672     5.9434356      5.9434356      5.9434356      0              0              0              1.0478762    
    137000   0.13754757     1.0493966     -5.7796658     -4.6501305      0.88172738     0.96667393     0.53757914     1.1409291     -0.035478752    0.094935785   -0.34795412     5.940564       5.940564       5.940564       0              0              0              1.0493966    
    138000   0.11593854     1.0528922     -5.8074264     -4.6301791      0.9612035      1.0905241      0.74018144     1.0529049     -0.066246966    0.085606731   -0.47933373     5.9339824      5.9339824      5.9339824      0              0              0              1.0528922    
    139000   0.114759       1.0528025     -5.7985015     -4.603669       0.97963733     1.2173884      0.76151908     0.96000453    -0.34727196    -0.0028397205  -0.40483279     5.9341509      5.9341509      5.9341509      0              0              0              1.0528025    
    140000   0.096760647    1.0551153     -5.8114178     -4.4762946      1.1421219      1.4886979      0.67521934     1.2624485     -0.23772033    -0.19749919    -0.069753187    5.9298119      5.9298119      5.9298119      0              0              0              1.0551153    
Loop time of 80.4899 on 1 procs for 140000 steps with 200 atoms

Performance: 300559.598 tau/day, 1739.350 timesteps/s
50.1% CPU use with 1 MPI tasks x 1 OpenMP threads

MPI task timing breakdown:
Section |  min time  |  avg time  |  max time  |%varavg| %total
---------------------------------------------------------------
Pair    | 70.741     | 70.741     | 70.741     |   0.0 | 87.89
Bond    | 1.0594     | 1.0594     | 1.0594     |   0.0 |  1.32
Neigh   | 0.50829    | 0.50829    | 0.50829    |   0.0 |  0.63
Comm    | 4.3332     | 4.3332     | 4.3332     |   0.0 |  5.38
Output  | 0.8827     | 0.8827     | 0.8827     |   0.0 |  1.10
Modify  | 2.2103     | 2.2103     | 2.2103     |   0.0 |  2.75
Other   |            | 0.7551     |            |       |  0.94

Nlocal:            200 ave         200 max         200 min
Histogram: 1 0 0 0 0 0 0 0 0 0
Nghost:           4320 ave        4320 max        4320 min
Histogram: 1 0 0 0 0 0 0 0 0 0
Neighs:          62198 ave       62198 max       62198 min
Histogram: 1 0 0 0 0 0 0 0 0 0

Total # of neighbors = 62198
Ave neighs/atom = 310.99
Ave special neighs/atom = 8.85
Neighbor list builds = 116
Dangerous builds = 0
System init for write_data ...
Generated 0 of 1 mixed pair_coeff terms from geometric mixing rule
WARNING: Not all mixed pair coeffs generated from mixing. Use write_data with 'pair ij' option to store all pair coeffs. (src/write_data.cpp:309)
Total wall time: 0:01:20
