LAMMPS (23 Jun 2022)
OMP_NUM_THREADS environment is not set. Defaulting to 1 thread. (src/comm.cpp:98)
  using 1 OpenMP thread(s) per MPI task
Reading data file ...
  orthogonal box = (0 0 0) to (200 200 200)
  2 by 2 by 3 MPI processor grid
  reading atoms ...
  200 atoms
  scanning bonds ...
  1 = max bonds/atom
  reading bonds ...
  80 bonds
Finding 1-2 1-3 1-4 neighbors ...
  special bond factors lj:    0        0        0       
  special bond factors coul:  0        0        0       
     1 = max # of 1-2 neighbors
     0 = max # of 1-3 neighbors
     0 = max # of 1-4 neighbors
     1 = max # of special neighbors
  special bonds CPU = 0.001 seconds
  read_data CPU = 0.005 seconds
Generated 0 of 1 mixed pair_coeff terms from geometric mixing rule
Neighbor list info ...
  update every 1 steps, delay 0 steps, check yes
  max neighbors/atom: 2000, page size: 100000
  master list distance cutoff = 5.5
  ghost atom cutoff = 5.5
  binsize = 2.75, bins = 73 73 73
  1 neighbor lists, perpetual/occasional/extra = 1 0 0
  (1) pair lj/cut, perpetual
      attributes: half, newton on
      pair build: half/bin/newton
      stencil: half/bin/3d
      bin: standard
Setting up Verlet run ...
  Unit style    : lj
  Current step  : 0
  Time step     : 0.002
Per MPI rank memory allocation (min/avg/max) = 6.325 | 6.364 | 6.44 Mbytes
   Step          Temp         Density         PotEng        Enthalpy        Press           Pxx            Pyy            Pzz            Pxy            Pxz            Pyz             Lx             Ly             Lz             Xy             Yz             Xz          Density    
         0   1              2.75e-05       2.2913944e-28  2.4875         2.4875e-05     2.4540872e-05  2.7057051e-05  2.3027077e-05 -8.5634887e-07  1.0219777e-06  4.891355e-07   200            200            200            0              0              0              2.75e-05     
       100   2.5460692      0.00020837979  4.84198       -3.056329      -0.0022160845  -0.0064438455  -9.1411273e-05 -0.00011299676 -0.00011418486  0.00013728392 -2.0090717e-05  101.8253       101.8253       101.8253       0              0              0              0.00020837979
       200   4.2640173      0.00048094567  1.6515352      17.205317      0.0040179672   0.0058416615   0.0033636118   0.0028486284  -4.2624545e-05 -8.577244e-05   7.8886212e-05  77.050516      77.050516      77.050516      0              0              0              0.00048094567
       300   3.4109398      0.00083253532  0.10441452     9.156491       0.0029980724   0.0036044164   0.0028719584   0.0025178425  -3.4032189e-05 -8.0698972e-05  5.233082e-05   64.171177      64.171177      64.171177      0              0              0              0.00083253532
       400   2.6552059      0.0012518399   1.5398951      0.88016203    -0.0052607182  -0.0047319373  -0.0058799371  -0.0051702803  -0.00041501165 -0.00027537954 -0.00021198168  56.013317      56.013317      56.013317      0              0              0              0.0012518399 
       500   1.8151474      0.0017357826   1.6597927      11.417977      0.011123332    0.010038299    0.012943983    0.010387714   -0.00051069168  0.0006509691   0.00020298644  50.231458      50.231458      50.231458      0              0              0              0.0017357826 
       600   1.8892071      0.0022799994   0.35087123     2.27065       -0.0018651697  -0.0020808686  -0.0023594003  -0.0011552402   0.00014960613 -0.00044872055 -0.00013997779  45.86654       45.86654       45.86654       0              0              0              0.0022799994 
       700   2.0017448      0.0028743938   0.26091093     2.6336833     -0.0016066075  -0.00080822457 -0.0019371145  -0.0020744835  -0.00042903062 -0.00045815992  7.5316871e-05  42.457929      42.457929      42.457929      0              0              0              0.0028743938 
       800   1.0049097      0.0035284004   0.97650921     7.783272       0.01702272     0.016019172    0.019775829    0.015273158   -0.0012302832   0.0013849883   0.00010608845  39.653507      39.653507      39.653507      0              0              0              0.0035284004 
       900   0.97054053     0.0042286119   0.6728215     -1.299832      -0.013151695   -0.012591571   -0.015891784   -0.010971731    0.0013142575  -0.0014228105  -0.00020058421  37.331458      37.331458      37.331458      0              0              0              0.0042286119 
      1000   1.4232159      0.0049740946   0.0585849      3.9886608      0.0081662248   0.0074680059   0.010132814    0.006897854   -0.00098694969  0.00041816216  0.00034211575  35.364665      35.364665      35.364665      0              0              0              0.0049740946 
      1100   0.92398114     0.0057764948   0.3477032      5.3447735      0.018999566    0.020826309    0.020361712    0.015810677   -0.0016471566   0.0014073909  -0.00012333831  33.644915      33.644915      33.644915      0              0              0              0.0057764948 
      1200   0.68895501     0.0066111333   0.69210469    -2.2041878     -0.023587068   -0.027970044   -0.024928986   -0.017862174    0.0021393658  -0.0021880114   3.2780419e-05  32.164904      32.164904      32.164904      0              0              0              0.0066111333 
      1300   1.0035489      0.0074954883   0.25947639     4.932773       0.021638111    0.023843988    0.023822787    0.017247559   -0.0019848487   0.0013400234   0.00010539801  30.84662       30.84662       30.84662       0              0              0              0.0074954883 
      1400   1.03082        0.008429186    0.0044405399   3.3220483      0.013633127    0.018305032    0.012298455    0.010295895   -0.0011343271   0.00063055318 -0.00026329342  29.662814      29.662814      29.662814      0              0              0              0.008429186  
      1500   0.89133183     0.0093835772   0.4042246     -0.9705303     -0.023075646   -0.03510453    -0.019770455   -0.014351954    0.002375514   -0.0016685557   0.0015893305   28.620996      28.620996      28.620996      0              0              0              0.0093835772 
      1600   0.85469719     0.010397875    0.47279687     5.5211849      0.035662372    0.045780916    0.034164627    0.027041572   -0.0028327929   0.00032882849 -0.0006813016   27.658335      27.658335      27.658335      0              0              0              0.010397875  
      1700   1.092712       0.011446659    0.057279881    1.4436234     -0.0025445833  -0.0036864134  -0.0032260238  -0.00072131284  0.0014357617   0.00067030814  0.00022396287  26.786418      26.786418      26.786418      0              0              0              0.011446659  
      1800   1.1740324      0.012516207    0.1307959      1.1784314     -0.0080172899  -0.019134849    0.00082825422 -0.0057452752   0.002106443    0.00098349753  0.002063974    26.000597      26.000597      26.000597      0              0              0              0.012516207  
      1900   0.92487385     0.013650457    0.44292828     5.7130353      0.048269664    0.067059401    0.041677096    0.036072496   -0.0070394719  -0.0013825768  -0.001355629    25.259524      25.259524      25.259524      0              0              0              0.013650457  
      2000   0.99320778     0.01480091     0.27986594    -0.15301601    -0.025770329   -0.039491045   -0.02199659    -0.015823353    0.0058300738   0.0033585331  -0.0013830007   24.587333      24.587333      24.587333      0              0              0              0.01480091   
      2100   1.2217664      0.015984588   -0.0047400579   2.8651809      0.015206206    0.01372719     0.020447303    0.011444126   -0.0030682953   0.00230443     0.00077480643  23.964797      23.964797      23.964797      0              0              0              0.015984588  
      2200   0.98683773     0.017229858    0.18049611     4.7592976      0.048650012    0.06905473     0.040192373    0.036702932   -0.0017644625  -0.0040346374   0.0010273499   23.372957      23.372957      23.372957      0              0              0              0.017229858  
      2300   0.83505521     0.018474131    0.35666415    -0.96020796    -0.04304795    -0.068452274   -0.036298547   -0.024393028    0.0037927162   0.0029766385   0.0012088451   22.835975      22.835975      22.835975      0              0              0              0.018474131  
      2400   1.0215209      0.019773974    0.073125117    3.6603074      0.037077323    0.048071783    0.035695511    0.027464675   -0.0057380799  -0.0015178283  -0.0015257274   22.324217      22.324217      22.324217      0              0              0              0.019773974  
      2500   1.0061407      0.021121583   -0.02448895     3.2915697      0.034838971    0.048300317    0.026324811    0.029891784    0.0015738771  -0.0015463525  -0.0026095397   21.838966      21.838966      21.838966      0              0              0              0.021121583  
      2600   0.87006304     0.022459252    0.23053719    -0.61769041    -0.043832225   -0.061628372   -0.030988858   -0.038879446   -0.00095259313  0.0020148891   0.0099679244   21.396487      21.396487      21.396487      0              0              0              0.022459252  
      2700   0.9318369      0.02386774     0.16708895     4.5319737      0.064532254    0.075033159    0.06073179     0.057831814   -0.0028708305  -0.0035381122  -0.0033424037   20.96704       20.96704       20.96704       0              0              0              0.02386774   
      2800   1.0658512      0.025298244   -0.062905831    2.0515656      0.012044001    0.013009881    0.0061367028   0.016985417   -0.0027887102   0.002325625   -0.0010565306   20.56415       20.56415       20.56415       0              0              0              0.025298244  
      2900   1.0584416      0.026728308    0.045187437    0.4563384     -0.028394528   -0.026291323   -0.022254229   -0.036638033    0.0049850498  -0.0060640505   0.0081437005   20.190655      20.190655      20.190655      0              0              0              0.026728308  
      3000   0.96674401     0.02824253     0.17170082     4.8589845      0.083300526    0.092863642    0.07566593     0.081372005    0.00049997022  0.0061748184   0.0020185742   19.823166      19.823166      19.823166      0              0              0              0.02824253   
      3100   1.043825       0.029745917    0.01804215     0.6653673     -0.024623769   -0.029181238   -0.023959132   -0.020730937   -0.0056814165  -0.0013435054  -0.0094231622   19.483416      19.483416      19.483416      0              0              0              0.029745917  
      3200   1.1275588      0.031278605   -0.091682961    1.7840986      0.005485132    0.020055521    0.0058079562  -0.0094080815   0.0030364991  -0.012928649    0.0090716932   19.159835      19.159835      19.159835      0              0              0              0.031278605  
      3300   0.987782       0.032883113    0.019657731    4.208785       0.081157395    0.078607857    0.075585403    0.089278925    0.001252216    0.013024057    0.0042741261   18.842994      18.842994      18.842994      0              0              0              0.032883113  
      3400   0.94147993     0.034462759    0.018954301   -0.0038387652  -0.044737419   -0.049511856   -0.03930762    -0.04539278     0.005576071   -0.0067663961  -0.0066894284   18.550582      18.550582      18.550582      0              0              0              0.034462759  
      3500   1.038749       0.036100666   -0.16121348     2.1913842      0.026329357    0.045762036    0.011664143    0.02156189     0.0051906871  -0.0025619041   0.0033307683   18.265679      18.265679      18.265679      0              0              0              0.036100666  
      3600   0.99641181     0.037793668   -0.18793495     3.4442637      0.073699508    0.07241418     0.068763848    0.079920495   -0.0010575858   0.0029204346  -0.0013139518   17.988759      17.988759      17.988759      0              0              0              0.037793668  
      3700   0.93545075     0.039450757   -0.12389832    -0.12339306    -0.050054223   -0.056101611   -0.041088782   -0.052972275    0.0038608699  -0.0077708898   0.0039045304   17.733282      17.733282      17.733282      0              0              0              0.039450757  
      3800   0.9562163      0.04118163    -0.16634555     2.9787329      0.064315433    0.08897107     0.047017658    0.056957571   -0.0033571507   3.5603202e-05 -0.003243906    17.481273      17.481273      17.481273      0              0              0              0.04118163   
      3900   0.97167379     0.042939711   -0.23024117     2.3414586      0.043778075    0.044838637    0.050138257    0.036357332    0.0025846011   0.0011267863   0.012327456    17.239362      17.239362      17.239362      0              0              0              0.042939711  
      4000   0.94274177     0.04468753    -0.15680557     0.25616689    -0.040384106   -0.059057725   -0.016496016   -0.045598577   -0.011406262    0.0019931705   0.011269336    17.011611      17.011611      17.011611      0              0              0              0.04468753   
      4100   0.96124994     0.046515258   -0.15351271     2.9507083      0.070599822    0.11276555     0.058046765    0.040987148    0.0070362712   0.020116954   -0.0045834486   16.785814      16.785814      16.785814      0              0              0              0.046515258  
      4200   0.99993107     0.048346596   -0.19029472     1.7124274      0.018034381    0.00041459918  0.0067311414   0.046957401    0.0079165697  -0.013617344    0.013632538    16.571135      16.571135      16.571135      0              0              0              0.048346596  
      4300   1.0696794      0.050171035   -0.2242265      1.091545      -0.012803878   -0.031086616    0.005721246   -0.013046265   -0.0066325803  -0.012660946   -0.0046435605   16.367784      16.367784      16.367784      0              0              0              0.050171035  
      4400   1.0250363      0.052080879   -0.1409968      3.1485047      0.083312115    0.10030059     0.091885312    0.05775045    -0.007438624    0.0087394841  -0.0015253984   16.165214      16.165214      16.165214      0              0              0              0.052080879  
      4500   1.0307858      0.053980928   -0.16108485     0.80456487    -0.02810925    -0.019852795   -0.053469921   -0.011005033   -0.004251726    0.0034430151   0.0046099161   15.97328       15.97328       15.97328       0              0              0              0.053980928  
      4600   1.0931656      0.055912229   -0.2588148      1.8287146      0.023177127    0.034395781    0.035108082    2.7518104e-05 -0.0077826105   0.018495701    0.010065788    15.787207      15.787207      15.787207      0              0              0              0.055912229  
      4700   1.0750816      0.057883667   -0.29590122     3.001062       0.089056856    0.077587111    0.098614206    0.09096925    -0.0066946587  -0.018697058   -7.8981975e-05  15.605902      15.605902      15.605902      0              0              0              0.057883667  
      4800   1.0014975      0.059822657   -0.26510327     0.95347107    -0.015018788   -0.015748762   -0.031196789    0.0018891857   0.0080438538  -0.011537818    0.00058363388  15.435439      15.435439      15.435439      0              0              0              0.059822657  
      4900   1.0074207      0.061833085   -0.36109373     1.5210805      0.021281753    0.027581363    0.027896356    0.0083675404   0.00069485853  0.02535312     0.01181693     15.266305      15.266305      15.266305      0              0              0              0.061833085  
      5000   0.96786989     0.063883146   -0.38657613     2.3481543      0.074928226    0.07143881     0.084292909    0.06905296    -0.0034744776   0.011259561    0.00043806165  15.101223      15.101223      15.101223      0              0              0              0.063883146  
      5100   0.92508322     0.065921458   -0.37918238     0.73700521    -0.015851062   -0.0066864806  -0.028280658   -0.012586047    0.0013666389  -0.020131533    0.017367269    14.943946      14.943946      14.943946      0              0              0              0.065921458  
      5200   0.90325697     0.068014381   -0.36119122     1.7534017      0.04739254     0.037936293    0.056581466    0.047659861   -0.0059374822  -0.0034599294  -0.01359307     14.789063      14.789063      14.789063      0              0              0              0.068014381  
      5300   0.95674347     0.070127992   -0.43460213     1.6936381      0.04464607     0.048272125    0.038158144    0.047507943   -0.013766701   -0.00059286537 -0.0069970206   14.638967      14.638967      14.638967      0              0              0              0.070127992  
      5400   0.98403993     0.072250157   -0.43440453     0.84572877    -0.01238409     0.019164281   -0.0035083404  -0.05280821     0.0044314505  -0.013011796   -0.0073775122   14.494213      14.494213      14.494213      0              0              0              0.072250157  
      5500   1.0314312      0.074424805   -0.45549905     1.7438277      0.044649179    0.015243304    0.055658191    0.063046043    0.0062394709  -0.010926846   -0.013080064    14.351644      14.351644      14.351644      0              0              0              0.074424805  
      5600   1.0618447      0.076607977   -0.46732271     1.843928       0.050592431    0.066223444    0.013568834    0.071985014   -0.0027389756   0.0017672581  -0.031211096    14.213997      14.213997      14.213997      0              0              0              0.076607977  
      5700   1.0694116      0.078799094   -0.47226052     1.4107536      0.020553478    0.045475809    0.033275016   -0.017090392    0.0031339543   0.017794631    0.016088252    14.08101       14.08101       14.08101       0              0              0              0.078799094  
      5800   1.0727107      0.081015393   -0.50763715     1.6209951      0.038858773    0.023700781    0.041253066    0.051622471   -0.0073576374   0.021984443   -0.012936923    13.951419      13.951419      13.951419      0              0              0              0.081015393  
      5900   1.0250707      0.083261954   -0.50383491     1.5440879      0.039209174    0.016056095    0.065980761    0.035590667   -0.026254444   -0.010504932    0.0031183405   13.824795      13.824795      13.824795      0              0              0              0.083261954  
      6000   0.98819694     0.085526631   -0.51591372     1.2525384      0.022825365    0.010307592    0.014415692    0.043752811    0.022397815   -0.00018525088  0.0044027751   13.701678      13.701678      13.701678      0              0              0              0.085526631  
      6100   0.92961333     0.087845782   -0.4844567      1.37046        0.037331962    0.05675721     0.050844818    0.0043938581   0.00083766385 -0.011417348   -0.033569478    13.580026      13.580026      13.580026      0              0              0              0.087845782  
      6200   0.91501004     0.090156986   -0.4839302      1.1404887      0.021208731    0.015883651    0.036517077    0.011225464    0.01577852     0.039206404    0.013905256    13.462977      13.462977      13.462977      0              0              0              0.090156986  
      6300   0.96849023     0.092526265   -0.56129541     1.5187058      0.053373316    0.052076968    0.035655612    0.072387369    0.0016086891   0.015400477   -0.016293103    13.347068      13.347068      13.347068      0              0              0              0.092526265  
      6400   1.0189314      0.094884811   -0.6087588      1.1103566      0.017110352   -0.010695813    0.043327716    0.018699153   -0.018048169   -0.043350125   -0.022959705    13.23555       13.23555       13.23555       0              0              0              0.094884811  
      6500   1.035509       0.097269683   -0.60406889     1.3602785      0.037037659    0.030723558    0.07724248     0.0031469382   0.021630054    0.015077397   -0.0084736677   13.126483      13.126483      13.126483      0              0              0              0.097269683  
      6600   1.0547934      0.099658197   -0.62152375     1.5142683      0.050872144    0.035681259    0.032364124    0.08457105    -0.0206914      0.019213963    0.026141284    13.020767      13.020767      13.020767      0              0              0              0.099658197  
      6700   1.0206524      0.10208077    -0.58356444     1.4122922      0.043851388    0.078251398    0.0088467525   0.044456013   -0.020772783   -0.051002335   -0.01241289     12.916938      12.916938      12.916938      0              0              0              0.10208077   
      6800   1.0425268      0.10454254    -0.64985189     0.90285313    -0.00031041804 -0.0014130136   0.038528841   -0.038047081   -0.00512789     0.013685982   -0.010336561    12.814742      12.814742      12.814742      0              0              0              0.10454254   
      6900   0.99975129     0.10703397    -0.63139593     1.7656031      0.088047137    0.12219131     0.029713299    0.1122368     -0.0011672809   0.04882778    -0.034373492    12.714531      12.714531      12.714531      0              0              0              0.10703397   
      7000   0.95458677     0.10952809    -0.61784319     1.0231246      0.021531934   -0.012128588    0.017456768    0.059267621    0.0048776632  -0.039799217    0.0071047055   12.617279      12.617279      12.617279      0              0              0              0.10952809   
      7100   0.94798378     0.11208652    -0.64134368     0.62815282    -0.014812671   -0.0033717962   0.021488083   -0.062554302    0.018738763    0.030890421    0.0047452385   12.520541      12.520541      12.520541      0              0              0              0.11208652   
      7200   0.91406584     0.11469443    -0.60162837     1.145611       0.039934106    0.029833329    0.021283673    0.068685316   -0.0067781725  -0.029610259   -0.010496949    12.424916      12.424916      12.424916      0              0              0              0.11469443   
      7300   0.96522858     0.11730614    -0.66669456     1.3358255      0.059923855    0.059382574    0.072719413    0.047669578    0.0034269436  -0.0065847663  -0.0017282063   12.332013      12.332013      12.332013      0              0              0              0.11730614   
      7400   0.98269076     0.11988858    -0.66263645     0.7064585     -0.010634228   -0.045515725    0.050695188   -0.037082147   -0.021238052    0.052139761    0.038557693    12.242825      12.242825      12.242825      0              0              0              0.11988858   
      7500   1.0230293      0.12252069    -0.67966995     1.3567087      0.056750185    0.049511159    0.044503742    0.076235656   -0.027725581   -0.055089156    0.024873396    12.154518      12.154518      12.154518      0              0              0              0.12252069   
      7600   1.0868812      0.12516854    -0.75071601     1.3013221      0.048914496    0.0589589      0.018420898    0.06936369    -0.021756979   -0.0075634418  -0.045625941    12.0682        12.0682        12.0682        0              0              0              0.12516854   
      7700   1.0965168      0.12777351    -0.76394781     1.0367902      0.019071559    0.026645278    0.024880479    0.0056889187  -0.023885257    0.038148057   -0.049948521    11.985623      11.985623      11.985623      0              0              0              0.12777351   
      7800   1.0138432      0.13045922    -0.67862135     1.4425633      0.072111177   -0.010802896    0.070807975    0.15632845    -0.043548947   -0.032880492    0.033829532    11.902805      11.902805      11.902805      0              0              0              0.13045922   
      7900   1.0361249      0.13314891    -0.76333398     1.1784033      0.047851415    0.079417618    0.042952836    0.021183793    0.010391635    0.00093647423 -0.036027439    11.822111      11.822111      11.822111      0              0              0              0.13314891   
      8000   0.98830434     0.13581859    -0.75241024     0.82709305     0.01289771     0.024744919    0.019021396   -0.0050731853   0.045692579   -0.022373704    0.019009009    11.744138      11.744138      11.744138      0              0              0              0.13581859   
      8100   0.94916887     0.13858184    -0.7518134      0.82232806     0.019843272   -0.012212902    0.040017715    0.031725004   -0.025359627    0.0025650637   0.025918191    11.665556      11.665556      11.665556      0              0              0              0.13858184   
      8200   0.94935259     0.14142008    -0.78593605     0.94074649     0.039825669    0.012487944    0.032977901    0.074011161   -0.0031906182   0.065460575   -0.0081202047   11.586987      11.586987      11.586987      0              0              0              0.14142008   
      8300   0.99157412     0.14420473    -0.85594413     0.6354392      0.0015022138   0.10688859    -0.050653146   -0.0517288     -0.028120353   -0.046671091    0.090489671    11.511919      11.511919      11.511919      0              0              0              0.14420473   
      8400   1.000331       0.14701615    -0.87166148     1.0129861      0.052344902    0.016083593    0.036750256    0.10420086    -0.0046354527   0.015545566    0.025695509    11.438065      11.438065      11.438065      0              0              0              0.14701615   
      8500   0.99889386     0.14984481    -0.87871803     0.96434582     0.047979597    0.026017483    0.029555098    0.088366209    0.028414621    0.0291502     -0.011446993    11.365634      11.365634      11.365634      0              0              0              0.14984481   
      8600   1.0280905      0.15272025    -0.93915588     0.34107895    -0.035290904   -0.005349856   -0.016732521   -0.083790335    0.0030334766  -0.037022059    0.065193398    11.29385       11.29385       11.29385       0              0              0              0.15272025   
      8700   1.0212437      0.1556694     -0.94813095     1.1736186      0.084562911    0.082124953    0.048969855    0.12259393    -0.0077913202   0.011086799    0.022608697    11.222074      11.222074      11.222074      0              0              0              0.1556694    
      8800   1.0323219      0.15855451    -0.99880532     0.054163962   -0.070307552   -0.09931166    -0.060639421   -0.050971576    0.022624252   -0.053592332    0.015294364    11.15359       11.15359       11.15359       0              0              0              0.15855451   
      8900   1.0176431      0.16157478    -1.0255657      0.59839164     0.01544141     0.044303038   -0.031120406    0.033141598   -0.038449742    0.0030780813   0.025770305    11.083656      11.083656      11.083656      0              0              0              0.16157478   
      9000   1.0377033      0.16458759    -1.1122668      0.89317773     0.068329626    0.14089719     0.014719753    0.049371931    0.026871597   -0.027736446    0.069179209    11.01561       11.01561       11.01561       0              0              0              0.16458759   
      9100   0.98032667     0.16758392    -1.087175       0.1297924     -0.037503779   -0.10165919     0.051696212   -0.062548354    0.10119329    -0.028407009   -0.035859869    10.949563      10.949563      10.949563      0              0              0              0.16758392   
      9200   0.95173342     0.17071295    -1.0957992      0.42872226     0.01614934     0.030661563   -0.003061446    0.020847904    0.038870511    0.026041109    0.0060316175   10.882251      10.882251      10.882251      0              0              0              0.17071295   
      9300   0.97878728     0.17374943    -1.1650908      0.34822565     0.0082888618   0.025376383    0.031221843   -0.031731641   -0.064278947   -0.081212811    0.019174936    10.818485      10.818485      10.818485      0              0              0              0.17374943   
      9400   0.93214805     0.17679358    -1.1167327      0.65705419     0.061484934    0.023608706    0.16388835    -0.003042253   -0.069983788    0.06310588    -0.0039383454   10.756031      10.756031      10.756031      0              0              0              0.17679358   
      9500   0.92653001     0.17979923    -1.103766       0.71867393     0.071853311    0.10096613     0.048675905    0.065917895   -0.011586983   -0.014529834   -0.004840176    10.695759      10.695759      10.695759      0              0              0              0.17979923   
      9600   0.93793507     0.18284289    -1.0918582      0.33748313     0.0048990625  -0.019329443    0.00041183684  0.033614793    0.015866702   -0.012882842    0.046607728    10.636079      10.636079      10.636079      0              0              0              0.18284289   
      9700   1.0089462      0.18601285    -1.1472839      0.34428413    -0.0024154809   0.11411098    -0.088015399   -0.033342028    0.018391927    0.032488454    0.040250527    10.575313      10.575313      10.575313      0              0              0              0.18601285   
      9800   1.0985749      0.18916374    -1.2308475      0.55214358     0.024654583   -0.093086343    0.10195648     0.065093617   -0.015073943   -0.020990007   -0.015029982    10.516267      10.516267      10.516267      0              0              0              0.18916374   
      9900   1.074086       0.19222217    -1.1717145      0.89877922     0.08168051     0.11049836     0.15503348    -0.020490308   -0.00078825028 -0.0063774138   0.00083122304  10.460194      10.460194      10.460194      0              0              0              0.19222217   
     10000   1.0877499      0.19531348    -1.2124556      0.72938485     0.05652971     0.10063029     0.039232537    0.029726302   -0.013945738   -0.022332264    0.011312768    10.404714      10.404714      10.404714      0              0              0              0.19531348   
     10100   1.0409384      0.19840426    -1.1976028      0.65413154     0.053773646    0.07083163     0.13298205    -0.042492742    0.036877012   -0.0074213757  -0.0065808299   10.350402      10.350402      10.350402      0              0              0              0.19840426   
     10200   0.96788862     0.20147307    -1.1628149      0.64366711     0.066286143    0.083645612    0.00058793436  0.11462488    -0.042368825    0.024747057   -0.11480365     10.297581      10.297581      10.297581      0              0              0              0.20147307   
     10300   1.0007928      0.20466475    -1.2861467     -0.0071134297  -0.039937525    0.0015549892  -0.10719391    -0.014173656   -0.041437605    0.033511432    0.046002475    10.243771      10.243771      10.243771      0              0              0              0.20466475   
     10400   0.96805954     0.20809736    -1.3031725      0.025304458   -0.022011387    0.038915345   -0.10362639    -0.0013231109  -0.027573319   -0.06588475    -0.037036347    10.187134      10.187134      10.187134      0              0              0              0.20809736   
     10500   0.94887575     0.21150025    -1.3136324     -0.14341094    -0.04729446    -0.015099535   -0.0013709396  -0.12541291    -0.049205225   -0.019685386   -0.078299869    10.132204      10.132204      10.132204      0              0              0              0.21150025   
     10600   0.97906038     0.21480196    -1.3636473      0.39549243     0.058170728    0.06130813     0.11110985     0.0020942089   0.065246204    0.04069343     0.033707225    10.080022      10.080022      10.080022      0              0              0              0.21480196   
     10700   1.005324       0.21807037    -1.3943692     -0.037393979   -0.028442486    0.00095293339 -0.055747252   -0.030533139    0.065269138   -0.018529097    0.013495196    10.029409      10.029409      10.029409      0              0              0              0.21807037   
     10800   0.99599006     0.22145998    -1.3685471      0.28925997     0.034485738    0.076653765    0.028654973   -0.0018515247   0.0044102863   0.062402734   -0.032223286    9.9779765      9.9779765      9.9779765      0              0              0              0.22145998   
     10900   1.0415797      0.22486105    -1.4253553      0.041640698   -0.017899292    0.01878784     0.044973866   -0.11745958    -0.022177156    0.039479187    0.035065993    9.9274144      9.9274144      9.9274144      0              0              0              0.22486105   
     11000   1.0301189      0.2283718     -1.4131897      0.46229405     0.07017891     0.0807514      0.065524148    0.064261181    0.057924478   -0.040343215   -0.072940669    9.8762802      9.8762802      9.8762802      0              0              0              0.2283718    
     11100   1.0475478      0.23166041    -1.44614       -0.010115568   -0.026839026   -0.073196494    0.028242929   -0.035563512   -0.027219848   -0.046024444   -0.057468287    9.8293232      9.8293232      9.8293232      0              0              0              0.23166041   
     11200   1.0253246      0.23502372    -1.4434074      0.058854552   -0.0059899005   0.089958413   -0.0934817     -0.014446415   -0.063389519   -0.068420612    0.013618148    9.7822103      9.7822103      9.7822103      0              0              0              0.23502372   
     11300   1.0408797      0.23862065    -1.5254042     -0.04773405    -0.016452408   -0.026992989   -0.12029622     0.097931988   -0.038891384    0.076484532   -0.0275004      9.7328095      9.7328095      9.7328095      0              0              0              0.23862065   
     11400   1.0103555      0.24215167    -1.5478375      0.033061206    0.016057555   -0.016555428    0.098793792   -0.0340657      0.048332161    0.04499721     0.16097791     9.6852701      9.6852701      9.6852701      0              0              0              0.24215167   
     11500   0.96470958     0.2455716     -1.5504825     -0.11016847     0.00010826876  0.048252354   -0.080294356    0.032366808   -0.0014722497  -0.081611502   -0.087453286    9.6400995      9.6400995      9.6400995      0              0              0              0.2455716    
     11600   0.93125944     0.24913029    -1.5558487     -0.082799481    0.018830732   -0.077463119    0.078421576    0.055533739    0.033421139   -0.00014885432 -0.015191222    9.593978       9.593978       9.593978       0              0              0              0.24913029   
     11700   0.96617245     0.25275484    -1.634982      -0.040959902    0.034928354   -0.0057878424  -0.064508152    0.17508106    -0.075765439   -0.088002554    0.07789611     9.5478971      9.5478971      9.5478971      0              0              0              0.25275484   
     11800   0.96341886     0.25634246    -1.6417244     -0.13314116     0.016471311    0.040757094   -0.12998991     0.13864675     0.15427215     0.039981271    0.067160196    9.5031455      9.5031455      9.5031455      0              0              0              0.25634246   
     11900   0.96867202     0.25982497    -1.6399728      0.094538646    0.068208405    0.25502494     0.032620222   -0.083019947    0.11123532     0.12198009     0.0086911108   9.4604966      9.4604966      9.4604966      0              0              0              0.25982497   
     12000   0.98161737     0.26340536    -1.6481593     -0.21094146    -0.0066680126  -0.17756845     0.050010389    0.10755402     0.031269409   -0.02596345     0.0037745536   9.4174363      9.4174363      9.4174363      0              0              0              0.26340536   
     12100   0.97906418     0.26714321    -1.6215178     -0.30605313    -0.035405855    9.8239435e-05  0.022876      -0.12919181    -0.095921674    0.00042088143 -0.042228289    9.3733071      9.3733071      9.3733071      0              0              0              0.26714321   
     12200   0.97665107     0.27078086    -1.5795649      0.016135801    0.033982748    0.018480216    0.014131219    0.069336811    0.017542039   -0.066134672   -0.03795404     9.3311443      9.3311443      9.3311443      0              0              0              0.27078086   
     12300   1.0496473      0.27436247    -1.6525822      0.48552305     0.14254544     0.089895696    0.15905524     0.17868539    -0.015815804   -0.056531781   -0.0034219664   9.2903625      9.2903625      9.2903625      0              0              0              0.27436247   
     12400   1.0160116      0.27793718    -1.5933275     -0.17580604    -0.024982974   -0.064893089   -0.027744804    0.01768897     0.027672197   -0.058115791   -0.050172962    9.2503609      9.2503609      9.2503609      0              0              0              0.27793718   
     12500   1.0731251      0.28163799    -1.688298      -0.33330634    -0.063150293   -0.056087561   -0.0070577471  -0.12630557    -0.044189959    0.0062599459  -0.059373041    9.2096646      9.2096646      9.2096646      0              0              0              0.28163799   
     12600   0.98418747     0.28538898    -1.5834968      0.21244386     0.084848964   -0.031124755    0.21748228     0.068189363   -0.04415359     0.10649864     0.067821533    9.1691376      9.1691376      9.1691376      0              0              0              0.28538898   
     12700   0.95647661     0.28914299    -1.5666173     -0.32391984    -0.048587555    0.04572123    -0.12639746    -0.065086437   -0.096558454   -0.0077469272   0.017323711    9.129283       9.129283       9.129283       0              0              0              0.28914299   
     12800   0.98600167     0.29306773    -1.6298007     -0.7419331     -0.15552303     0.0071497689  -0.19100479    -0.28271406     0.047835391   -0.014978817   -0.058602671    9.0883469      9.0883469      9.0883469      0              0              0              0.29306773   
     12900   0.98781075     0.29719633    -1.6487486      0.2252416      0.10798565    -0.083771462    0.39094081     0.016787606    0.18736585    -0.0038798961  -0.083465245    9.0460659      9.0460659      9.0460659      0              0              0              0.29719633   
     13000   1.0498846      0.30097874    -1.751409      -0.6558995     -0.12899492    -0.12599895    -0.26629015     0.0053043278  -0.1759695     -0.046683435   -0.12191355     9.008012       9.008012       9.008012       0              0              0              0.30097874   
     13100   1.0719441      0.30509619    -1.8158718     -0.50164431    -0.079227694   -0.02941771     0.10705599    -0.31532136    -0.088321362   -0.011323463    0.064601104    8.9673055      8.9673055      8.9673055      0              0              0              0.30509619   
     13200   1.08977        0.30915952    -1.8997713     -0.66813685    -0.11097346    -0.089634937   -0.07968129    -0.16360416    -0.044275021   -0.035453532    0.17474416     8.9278459      8.9278459      8.9278459      0              0              0              0.30915952   
     13300   0.97024832     0.31318536    -1.8047528     -0.38848503    -0.0090618418   0.040985562   -0.17114787     0.10297678    -0.036461084   -0.012871326    0.065323302    8.8894265      8.8894265      8.8894265      0              0              0              0.31318536   
     13400   1.0065448      0.31710183    -1.9305044     -0.36300591     0.018804239   -0.052206435   -0.0042575387   0.11287669     0.044124939   -0.027192986   -0.13931955     8.8526775      8.8526775      8.8526775      0              0              0              0.31710183   
     13500   0.95745948     0.32102978    -1.9154597     -0.6461763     -0.046614954   -0.13125201    -0.012482695    0.0038898407  -0.024543459    0.013727786   -0.040416331    8.8164237      8.8164237      8.8164237      0              0              0              0.32102978   
     13600   0.96810374     0.32523206    -1.9699283     -0.65981432    -0.039850034    0.087378601   -0.24603166     0.039102958    0.16176286    -0.13376275     0.048510076    8.778287       8.778287       8.778287       0              0              0              0.32523206   
     13700   0.94532261     0.32941363    -1.952278      -0.71481473    -0.051936781    0.09128379     0.14499232    -0.39208645    -0.17161948     0.014209472    0.068580065    8.7409849      8.7409849      8.7409849      0              0              0              0.32941363   
     13800   1.0524338      0.33350036    -2.1117356     -0.23663918     0.092270134    0.068510318    0.063746325    0.14455376    -0.10959268     0.053746027   -0.023156295    8.7051339      8.7051339      8.7051339      0              0              0              0.33350036   
     13900   1.0459649      0.33739298    -2.1066912     -0.57485462    -0.0089765122   0.021023081   -0.022246435   -0.025706183   -0.069864048   -0.094781084    0.16736219     8.6715263      8.6715263      8.6715263      0              0              0              0.33739298   
     14000   1.0274495      0.34135474    -2.1139293     -0.64104672    -0.018801116    0.12302628    -0.22914877     0.049719147    0.075057576    0.16563897     0.15837584     8.6378485      8.6378485      8.6378485      0              0              0              0.34135474   
     14100   1.0583777      0.34519967    -2.2315806      0.081737014    0.23024471     0.19546583     0.32571833     0.16954997    -0.056804775   -0.15294732    -0.010364535    8.6056584      8.6056584      8.6056584      0              0              0              0.34519967   
     14200   1.0017966      0.34894067    -2.2459229     -1.504797      -0.23920056    -0.21718368    -0.29274783    -0.20767018     0.028430761   -0.081875212    0.0035068183   8.574794       8.574794       8.574794       0              0              0              0.34894067   
     14300   0.95970464     0.35328653    -2.2483792     -1.276978      -0.1480457     -0.1700063     -0.065413319   -0.20871748     0.055243418    0.03605887     0.13470237     8.5394887      8.5394887      8.5394887      0              0              0              0.35328653   
     14400   0.97262526     0.35770997    -2.2982827     -0.69733211     0.048553395   -0.028957973   -0.00630052     0.18091868    -0.01518131     0.063697144   -0.0003991333   8.5041428      8.5041428      8.5041428      0              0              0              0.35770997   
     14500   1.0002531      0.36196238    -2.3431089     -0.88425383    -0.011195393   -0.050484028   -0.00033480876  0.017232658    0.072616804   -0.011338193   -0.10038409     8.4707087      8.4707087      8.4707087      0              0              0              0.36196238   
     14600   0.99554238     0.36618081    -2.3361751     -1.3095549     -0.15287275    -0.15357608    -0.21288064    -0.092161548   -0.091126248   -0.21610195    -0.0068517164   8.4380553      8.4380553      8.4380553      0              0              0              0.36618081   
     14700   1.0630132      0.37050818    -2.4350475     -1.0701765     -0.074666267   -0.16954098    -0.29355018     0.23909236     0.036522369   -0.060259599   -0.058462011    8.4050756      8.4050756      8.4050756      0              0              0              0.37050818   
     14800   1.0410587      0.37492381    -2.4204377     -1.3607656     -0.1684117     -0.24151794    -0.11929888    -0.14441829     0.19482127    -0.009780385   -0.15053471     8.3719486      8.3719486      8.3719486      0              0              0              0.37492381   
     14900   1.0269573      0.37939763    -2.4575891     -0.86745046     0.019799351   -0.14198569    -0.19876982     0.40015356    -0.033041692    0.037128766   -0.1550939      8.3389113      8.3389113      8.3389113      0              0              0              0.37939763   
     15000   0.98900731     0.38357058    -2.4857892     -1.0451854     -0.01237522    -0.047206521   -0.16929756     0.17937842     0.017979106    0.1421015      0.079318165    8.3085607      8.3085607      8.3085607      0              0              0              0.38357058   
     15100   0.96307644     0.38772239    -2.5464887     -1.5349987     -0.15011961    -0.093880764   -0.14967881    -0.20679927     0.13362166    -0.068376778    0.26089208     8.2787976      8.2787976      8.2787976      0              0              0              0.38772239   
     15200   0.89874411     0.39222355    -2.5173277     -1.2208747     -0.016017873   -0.081516584    0.07226271    -0.038799745    0.040137222    0.021938795   -0.04051303     8.2470066      8.2470066      8.2470066      0              0              0              0.39222355   
     15300   0.94179893     0.39658909    -2.5906785     -1.627808      -0.15963231    -0.25642969    -0.069525345   -0.1529419      0.092255583    0.0011332394   0.022733195    8.2166346      8.2166346      8.2166346      0              0              0              0.39658909   
     15400   0.92966649     0.40109129    -2.5520207     -1.8367689     -0.24513075    -0.1246062     -0.33936078    -0.27142528    -0.086920597   -0.0015304601  -0.14114851     8.1857752      8.1857752      8.1857752      0              0              0              0.40109129   
     15500   0.95986553     0.40596549    -2.5733213     -0.88044681     0.096057061    0.25712511    -0.071916281    0.10296236     0.055665968    0.045149497    0.057604633    8.1528826      8.1528826      8.1528826      0              0              0              0.40596549   
     15600   0.99990746     0.41046587    -2.5994768     -1.5412732     -0.16200648    -0.16048913    -0.17431509    -0.15121523     0.16593509    -0.04361024    -0.024534657    8.1229768      8.1229768      8.1229768      0              0              0              0.41046587   
     15700   1.0109557      0.41514334    -2.5847089     -0.92072685     0.058546746    0.19994631     0.19085067    -0.21515673     0.21316287    -0.043263586   -0.1056537      8.0923539      8.0923539      8.0923539      0              0              0              0.41514334   
     15800   1.0472321      0.41960399    -2.6169519     -1.0376708      0.0062128831   0.15415221    -0.19904484     0.063531281    0.011597291   -0.12216639    -0.038299938    8.0635761      8.0635761      8.0635761      0              0              0              0.41960399   
     15900   1.0403079      0.42379711    -2.6047373     -0.67684331     0.14456662     0.15633064     0.16640461     0.11096461    -0.15184583     0.044111494   -0.054059474    8.0368938      8.0368938      8.0368938      0              0              0              0.42379711   
     16000   1.0685538      0.42774893    -2.670781      -0.92917504     0.057080935    0.065714368    0.09344202     0.012086416   -0.13220098     0.0089209075   0.12117996     8.0120672      8.0120672      8.0120672      0              0              0              0.42774893   
     16100   0.96022366     0.43184151    -2.5575717     -1.1383864     -0.0054759585  -0.044358269   -0.039481805    0.067412198    0.097869975    0.13236075     0.046666548    7.9866766      7.9866766      7.9866766      0              0              0              0.43184151   
     16200   0.96609524     0.43619133    -2.6209733     -1.470831      -0.11569176     0.021487594   -0.21349382    -0.15506904     0.12743307     0.060765722    0.084621709    7.9600394      7.9600394      7.9600394      0              0              0              0.43619133   
     16300   0.92008155     0.44112801    -2.602073      -1.4759657     -0.099099191   -0.056563804   -0.038857485   -0.20187628     0.067259499    0.14136209     0.16743991     7.9302343      7.9302343      7.9302343      0              0              0              0.44112801   
     16400   0.88677309     0.44632257    -2.5808412     -2.1035336     -0.34334427    -0.41827614    -0.33656418    -0.27519249     0.094095716    0.11079291    -0.1195749      7.8993486      7.8993486      7.8993486      0              0              0              0.44632257   
     16500   0.96712992     0.45164987    -2.6841204     -1.3963418     -0.063913709   -0.25271095    -0.032078814    0.09304864    -0.085867511   -0.29406357    -0.0026506667   7.8681675      7.8681675      7.8681675      0              0              0              0.45164987   
     16600   0.98995933     0.45641162    -2.6354698     -0.75631733     0.16664759     0.2580226     -0.079911179    0.32183133    -0.070891052   -0.0040689562   0.13153445     7.8407089      7.8407089      7.8407089      0              0              0              0.45641162   
     16700   1.0988994      0.4605954     -2.6891503     -1.284231      -0.098478682   -0.12354074     0.0016630302  -0.17355833     0.0029620419   0.041954195    0.27000649     7.8168965      7.8168965      7.8168965      0              0              0              0.4605954    
     16800   1.0881324      0.46489377    -2.6182412     -0.8806425      0.04799444     0.22223998    -0.17719981     0.098943147   -0.051188325    0.020179658   -0.13618775     7.7927304      7.7927304      7.7927304      0              0              0              0.46489377   
     16900   1.0845453      0.46941088    -2.6177457     -1.2223402     -0.095281165   -0.37357548    -0.04467481     0.1324068      0.015526203    0.20527389     0.16220559     7.7676535      7.7676535      7.7676535      0              0              0              0.46941088   
     17000   1.1113153      0.47435661    -2.7137222     -0.95647407     0.042523965   -0.15600774     0.045019469    0.23856017     0.047024505    0.18989723     0.27011144     7.7405634      7.7405634      7.7405634      0              0              0              0.47435661   
     17100   1.0209012      0.47899182    -2.6595561     -1.7037903     -0.24730311    -0.34110421    -0.23879739    -0.16200773    -0.19231384     0.089545202   -0.14646357     7.7155139      7.7155139      7.7155139      0              0              0              0.47899182   
     17200   1.0357411      0.48410281    -2.7622865     -1.4480674     -0.1019364     -0.027843843   -0.37418691     0.09622155    -0.24429429    -0.0031517416  -0.28259294     7.6882653      7.6882653      7.6882653      0              0              0              0.48410281   
     17300   0.98098835     0.48931332    -2.7337634     -1.4294245     -0.071077732   -0.22389242     0.25826977    -0.24761055     0.1550596     -0.10796966     0.062941801    7.660878       7.660878       7.660878       0              0              0              0.48931332   
     17400   0.99374022     0.49417533    -2.780211      -1.6518953     -0.15941272     0.0071331489  -0.14369812    -0.3416732      0.14973929     0.021890422    0.0078335443   7.635671       7.635671       7.635671       0              0              0              0.49417533   
     17500   0.97875009     0.499036      -2.7665387     -1.3142865     -0.0038708499  -0.046922012    0.16853702    -0.13322756    -0.026205274    0.0088427677  -0.084535045    7.6107993      7.6107993      7.6107993      0              0              0              0.499036     
     17600   1.030872       0.50395166    -2.8463281     -1.6547544     -0.15897513    -0.11538076    -0.36529908     0.0037544361  -0.27834953    -0.11645716    -0.027687427    7.5859725      7.5859725      7.5859725      0              0              0              0.50395166   
     17700   0.99407828     0.5092169     -2.7954639     -2.1955488     -0.40910794    -0.28559626    -0.46954719    -0.47218039     0.12244911     0.27035584     0.025539582    7.5597359      7.5597359      7.5597359      0              0              0              0.5092169    
     17800   1.0103235      0.51501949    -2.8103229     -1.8150845     -0.24003161    -0.12925899    -0.31892881    -0.27190704    -0.14193363    -0.10774428     0.15087799     7.5312374      7.5312374      7.5312374      0              0              0              0.51501949   
     17900   0.95994511     0.52049475    -2.6986537     -0.64975426     0.2915629      0.2708217     -0.12980937     0.73367638     0.078250826    0.080768641   -0.02584648     7.5047364      7.5047364      7.5047364      0              0              0              0.52049475   
     18000   1.0537822      0.52539253    -2.7728622     -1.2726787     -0.034669434   -0.23493536     0.046379526    0.084547537   -0.075408978   -0.18751479     0.16412773     7.4813435      7.4813435      7.4813435      0              0              0              0.52539253   
     18100   1.1236745      0.53025802    -2.7982592     -1.0241779      0.046757693    0.34019615    -0.20865181     0.0087287465  -0.20074857     0.062348322   -0.18425998     7.458391       7.458391       7.458391       0              0              0              0.53025802   
     18200   1.0821857      0.53468081    -2.6871425     -0.99547955     0.037185019    0.12759373    -0.21604736     0.20000869    -0.025172291   -0.01982068     0.21237023     7.4377691      7.4377691      7.4377691      0              0              0              0.53468081   
     18300   1.1120091      0.53910388    -2.7385781     -0.99898744     0.039166919   -0.0046920598   0.061639751    0.060553065    0.15791088    -0.12563315    -0.3226039      7.4173722      7.4173722      7.4173722      0              0              0              0.53910388   
     18400   1.0446553      0.54355426    -2.7143515     -0.83972933     0.15588847     0.47482945    -0.19168954     0.18452549    -0.047414573    0.064691385    0.29772428     7.3970734      7.3970734      7.3970734      0              0              0              0.54355426   
     18500   0.99052907     0.54826158    -2.7513265     -1.6736189     -0.19969531     0.021471596   -0.4123706     -0.20818693     0.001246915    0.11253917     0.20132972     7.3758423      7.3758423      7.3758423      0              0              0              0.54826158   
     18600   0.96589982     0.55354651    -2.7949386     -2.2406835     -0.44653611    -0.24680351    -0.64867865    -0.44412616     0.088300089   -0.023801415   -0.26179067     7.3522938      7.3522938      7.3522938      0              0              0              0.55354651   
     18700   0.95244282     0.5601169     -2.8252226     -1.6353918     -0.11797593     0.052983214   -0.28069307    -0.12621793     0.14631832     0.12331034    -0.2602673      7.3234322      7.3234322      7.3234322      0              0              0              0.5601169    
     18800   0.98499627     0.56663355    -2.8997751     -2.9176401     -0.76648617    -0.6615496     -0.77539263    -0.8625163     -0.0088818321  -0.0058137441   0.06091588     7.2952492      7.2952492      7.2952492      0              0              0              0.56663355   
     18900   1.0497032      0.57349207    -3.0151863     -1.9768996     -0.27548233     0.1167911     -0.52179596    -0.42144212    -0.34960267    -0.01060876     0.025794559    7.2660507      7.2660507      7.2660507      0              0              0              0.57349207   
     19000   0.93871274     0.58019144    -2.8772543     -1.4419901      0.018057343    0.24391271    -0.031763411   -0.15797727    -0.11871579    -0.0036878071   0.31896155     7.2379757      7.2379757      7.2379757      0              0              0              0.58019144   
     19100   1.0374737      0.5864124     -3.0490788     -2.3374149     -0.4460816     -0.33249734    -0.46596359    -0.53978386     0.21520744    -0.026001871   -0.26312304     7.21229        7.21229        7.21229        0              0              0              0.5864124    
     19200   1.0437414      0.5924523     -3.0899824     -1.9776603     -0.23992265    -0.47787452    -0.39575432     0.15386088     0.15863931     0.3949235     -0.097027855    7.187697       7.187697       7.187697       0              0              0              0.5924523    
     19300   0.98037273     0.59828632    -3.0471555     -1.6610761     -0.04194907     0.014618768    0.0048805825  -0.14534656     0.096014493   -0.28101706     0.20130479     7.1642578      7.1642578      7.1642578      0              0              0              0.59828632   
     19400   0.97671456     0.60402155    -3.122454      -2.1423937     -0.26230248    -0.14455253    -0.41278854    -0.22956637    -0.064548639   -0.0072339229  -0.07867962     7.1415105      7.1415105      7.1415105      0              0              0              0.60402155   
     19500   0.97964058     0.60996926    -3.2157259     -2.6112461     -0.47557294    -0.5300989     -0.65617897    -0.24044095    -2.2872343e-05 -0.011198802   -0.25101841     7.1182228      7.1182228      7.1182228      0              0              0              0.60996926   
     19600   0.93417895     0.61627598    -3.2147374     -2.5899022     -0.43107209    -0.041748809   -0.53301003    -0.71845741    -0.33375177     0.15696294     0.15641969     7.0938578      7.0938578      7.0938578      0              0              0              0.61627598   
     19700   0.94318263     0.62261907    -3.2504155     -2.0329137     -0.10765551    -0.22509973    -0.12245733     0.024590518    0.074200603   -0.062526131   -0.40228984     7.0696854      7.0696854      7.0696854      0              0              0              0.62261907   
     19800   0.91159432     0.628729      -3.1989896     -1.4764287      0.20691261     0.035428124    0.31301614     0.27229356    -0.11377784     0.19083266    -0.27283603     7.0467099      7.0467099      7.0467099      0              0              0              0.628729     
     19900   0.96434169     0.63476574    -3.2482266     -2.8183825     -0.58250482    -0.69149587    -0.81034682    -0.24567177    -0.042094982    0.094392282    0.32200767     7.0243003      7.0243003      7.0243003      0              0              0              0.63476574   
     20000   1.0186647      0.64172646    -3.2813581     -2.262667      -0.29266572     0.21560813    -0.49430895    -0.59929633     0.027298052   -0.16995812    -0.31427371     6.9988107      6.9988107      6.9988107      0              0              0              0.64172646   
     20100   1.0903571      0.64795264    -3.3032386     -1.4702779      0.12110985    -0.032623906    0.46902828    -0.073074828    0.29047893    -0.24769791    -0.11916218     6.9763213      6.9763213      6.9763213      0              0              0              0.64795264   
     20200   1.1691385      0.65295734    -3.3489669     -1.5639489      0.023790583   -0.18917702     0.2170375      0.043511265    0.10546783     0.20635366    -0.055702303    6.9584518      6.9584518      6.9584518      0              0              0              0.65295734   
     20300   1.1838209      0.65731862    -3.331426      -0.90728476     0.39277094     0.48027756     0.56617705     0.13185821    -0.11454228    -0.26445634     0.049429357    6.943028       6.943028       6.943028       0              0              0              0.65731862   
     20400   1.1334568      0.66082224    -3.3099025     -1.406054       0.12745711    -0.21550212     0.14984591     0.44802755    -0.0903998     -0.39232274    -0.32015792     6.9307358      6.9307358      6.9307358      0              0              0              0.66082224   
     20500   1.0886241      0.66485983    -3.4216852     -1.3458217      0.27264811     0.10830518     0.35109892     0.35854024     0.40104138     0.12295694    -0.16603015     6.9166775      6.9166775      6.9166775      0              0              0              0.66485983   
     20600   1.024586       0.66966504    -3.4513251     -2.6906658     -0.46787386    -0.35969864    -0.05259275    -0.99133019    -0.33696972     0.11064338     0.24508218     6.9000942      6.9000942      6.9000942      0              0              0              0.66966504   
     20700   1.019961       0.67579653    -3.5165509     -2.3563525     -0.2224559     -0.12535498    -0.79884069     0.25682798     0.069622043   -0.058659842    0.075167956    6.8791626      6.8791626      6.8791626      0              0              0              0.67579653   
     20800   0.96142897     0.68202483    -3.4851458     -2.3036782     -0.15715406     0.26576225     0.11265262    -0.84987707     0.2586326      0.037811234   -0.21262268     6.8581582      6.8581582      6.8581582      0              0              0              0.68202483   
     20900   0.9492574      0.68758925    -3.4939383     -1.3502473      0.45438666     0.60033196     0.54798852     0.21483949    -0.554731      -0.097744776   -0.00049897815  6.8396078      6.8396078      6.8396078      0              0              0              0.68758925   
     21000   1.0285409      0.69205758    -3.6264018     -2.3891743     -0.18740279    -0.25202174    -0.23659953    -0.073587086    0.27683302    -0.16963903     0.30904653     6.8248559      6.8248559      6.8248559      0              0              0              0.69205758   
     21100   1.0271052      0.69735862    -3.646221      -2.1700312     -0.035986718    0.36924021    -0.015143798   -0.46205657    -0.14229841     0.24326203    -0.094759887    6.8075186      6.8075186      6.8075186      0              0              0              0.69735862   
     21200   1.0028212      0.70281184    -3.6405328     -1.8396837      0.19432015     0.64324047     0.1136051     -0.17388513     0.067340092    0.039284814   -0.02609548     6.789866       6.789866       6.789866       0              0              0              0.70281184   
     21300   1.0025381      0.70720255    -3.6763094     -1.9767141      0.13070852    -0.77834649     0.37722945     0.79324261    -0.14186794     0.2860499      0.1797974      6.7757851      6.7757851      6.7757851      0              0              0              0.70720255   
     21400   1.0076132      0.71182764    -3.7331588     -2.3529693     -0.080030868   -0.55092144    -0.30505413     0.61588297     0.10341679    -0.021589093    0.12718319     6.761078       6.761078       6.761078       0              0              0              0.71182764   
     21500   1.0280831      0.71699212    -3.8115393     -2.5509065     -0.17845366    -0.24220887    -0.251968      -0.041184107    0.15938682    -0.083176433    0.024612743    6.7448055      6.7448055      6.7448055      0              0              0              0.71699212   
     21600   0.97224502     0.72276053    -3.781434      -2.3966507     -0.043557748    0.52514815     0.34357614    -0.99939754     0.37920873     0.52173545    -0.43611987     6.726814       6.726814       6.726814       0              0              0              0.72276053   
     21700   0.97333397     0.72878253    -3.8423978     -2.696157      -0.20303891    -0.8902115      0.40860214    -0.12750738    -0.25295816     0.1123999      0.30407023     6.7082346      6.7082346      6.7082346      0              0              0              0.72878253   
     21800   1.0227897      0.73448259    -3.9647065     -1.8979541      0.36072365     0.62872859     0.18181741     0.27162494     0.12502863    -0.43037618    -0.15412036     6.6908361      6.6908361      6.6908361      0              0              0              0.73448259   
     21900   0.96728337     0.73898998    -3.921671      -2.1080826      0.24851427     0.13043146     0.36652417     0.24858719     0.017866369    0.14383636    -0.16495787     6.677205       6.677205       6.677205       0              0              0              0.73898998   
     22000   0.96467533     0.74300548    -3.9394457     -2.6600857     -0.10835581    -0.053682355   -0.36905849     0.097673401    0.088751407   -0.064316143   -0.0381874      6.6651545      6.6651545      6.6651545      0              0              0              0.74300548   
     22100   0.99839238     0.74815441    -3.9974004     -2.087671       0.28540648     0.38917489     0.40758946     0.059455075    0.33864845     0.11816172     0.30532688     6.649829       6.649829       6.649829       0              0              0              0.74815441   
     22200   1.0044072      0.75293775    -3.9992707     -2.8976704     -0.27206888    -0.023669255    0.081514537   -0.87405191    -0.13200778    -0.21842668     0.26602079     6.6357172      6.6357172      6.6357172      0              0              0              0.75293775   
     22300   0.99546391     0.75798448    -3.9708805     -1.6921004      0.5464725      0.79689874     0.47331284     0.36920591     0.00373034    -0.16083353    -0.69716735     6.6209573      6.6209573      6.6209573      0              0              0              0.75798448   
     22400   0.99282257     0.76157288    -3.9355239     -1.8186742      0.43967825     0.24981814     0.67660971     0.3926069      0.099593282   -0.36392612     0.032567934    6.610542       6.610542       6.610542       0              0              0              0.76157288   
     22500   1.0895625      0.76444394    -4.0420798     -1.473529       0.65490521     0.1097713      0.64359703     1.2113473     -0.11746209    -0.054942889   -0.050373093    6.6022558      6.6022558      6.6022558      0              0              0              0.76444394   
     22600   1.0376485      0.76645243    -3.9417699     -1.0712128      0.9210436      1.0047477      0.80595859     0.95242452    -0.45432223     0.59585908    -0.34093007     6.5964837      6.5964837      6.5964837      0              0              0              0.76645243   
     22700   1.1229719      0.76849918    -4.0775449     -2.5071494     -0.07380394    -0.32009799    -0.39009643     0.4887826     -0.41619496    -0.0054854601   0.065281479    6.5906223      6.5906223      6.5906223      0              0              0              0.76849918   
     22800   1.0207963      0.77181928    -3.968071      -2.4486994     -0.0029236944  -0.0091504368   0.39154177    -0.39116242     0.10085639    -0.11245256    -0.41844564     6.5811585      6.5811585      6.5811585      0              0              0              0.77181928   
     22900   1.083451       0.77537586    -4.1292098     -1.8207656      0.4873545      0.68471626     0.20667682     0.57067043     0.4769045      0.20593246    -0.24208692     6.5710807      6.5710807      6.5710807      0              0              0              0.77537586   
     23000   1.0159995      0.7789541     -4.1130248     -2.4466755      0.1061998     -0.15240588     0.030494549    0.44051073     0.17356851    -0.0074691176   0.34968632     6.5610035      6.5610035      6.5610035      0              0              0              0.7789541    
     23100   0.94397942     0.78325466    -4.0755424     -2.6379266      0.020454662    0.11791194     0.44620985    -0.5027578      0.03150447    -0.4128012     -0.37781745     6.5489735      6.5489735      6.5489735      0              0              0              0.78325466   
     23200   0.91700163     0.78788225    -4.0774614     -2.1637803      0.39040012     0.22025908     0.25485197     0.69608932    -0.089337473    0.036193216   -0.066532703    6.5361266      6.5361266      6.5361266      0              0              0              0.78788225   
     23300   1.0542624      0.79256176    -4.2999568     -2.612302       0.082259354    0.19973749    -0.074383608    0.12142418    -0.081318435   -0.72720298     0.34107517     6.5232375      6.5232375      6.5232375      0              0              0              0.79256176   
     23400   0.97755147     0.79664264    -4.1884224     -1.9732263      0.54765599    -0.27073997     1.3823768      0.53133109     0.16125354    -0.12939259    -0.17337179     6.5120798      6.5120798      6.5120798      0              0              0              0.79664264   
     23500   1.069377       0.79920387    -4.3160706     -2.0469727      0.48900578     0.72020972     0.30268686     0.44412076     0.36726195     0.17527401     0.33845205     6.5051158      6.5051158      6.5051158      0              0              0              0.79920387   
     23600   0.96761747     0.80099847    -4.1557275     -1.7450794      0.7037711      0.085884225    0.82376185     1.2016672      0.54604178    -0.30786476     0.22186336     6.5002541      6.5002541      6.5002541      0              0              0              0.80099847   
     23700   1.0378632      0.80283832    -4.2454254     -1.7609113      0.68277977     0.66000532     0.60983708     0.7784969      0.32058138    -0.14177947    -0.064132402    6.4952848      6.4952848      6.4952848      0              0              0              0.80283832   
     23800   1.0561755      0.80494993    -4.2499884     -2.084961       0.43078399    -0.10814628     0.70019158     0.70030668    -0.15865046     0.14099064     0.21965767     6.4896001      6.4896001      6.4896001      0              0              0              0.80494993   
     23900   1.0618696      0.80765131    -4.2273249     -1.8785668      0.5608902      0.85637495     0.22118131     0.60511434    -0.065171582    0.086441512    0.0421633      6.4823567      6.4823567      6.4823567      0              0              0              0.80765131   
     24000   1.0239772      0.80960646    -4.1492786     -1.1312746      1.0964412      0.66472993     1.5409905      1.0836031     -0.061724848    0.18157702     0.33006896     6.4771343      6.4771343      6.4771343      0              0              0              0.80960646   
     24100   1.1182605      0.81030359    -4.2861039     -2.2384153      0.27895424    -0.045434878    0.49472007     0.38757753     0.52194211     0.15569692     0.37050426     6.4752763      6.4752763      6.4752763      0              0              0              0.81030359   
     24200   0.99764542     0.81187278    -4.1407901     -0.9654531      1.2446387      0.82805232     0.606344       2.2995199      0.08526552    -0.40382405    -0.18021332     6.4711018      6.4711018      6.4711018      0              0              0              0.81187278   
     24300   1.0079824      0.81309007    -4.2276709     -1.3472127      1.0171346      1.0378063      0.93990475     1.0736927      0.45718211    -0.1932161     -0.0093689558   6.4678709      6.4678709      6.4678709      0              0              0              0.81309007   
     24400   1.0517789      0.81474729    -4.3824974     -2.7623724      0.037289401   -0.0044969414  -0.17336532     0.28973046     0.069630842    0.50198954     0.10492435     6.4634826      6.4634826      6.4634826      0              0              0              0.81474729   
     24500   0.95388257     0.81765141    -4.3127666     -1.9069291      0.73006442     0.86369543     0.60145408     0.72504374    -0.018097982    0.5353786     -0.38282097     6.4558212      6.4558212      6.4558212      0              0              0              0.81765141   
     24600   0.91660639     0.81995896    -4.2973168     -1.8574544      0.79895855     0.8861445      0.59615376     0.91457737     0.11789487     0.11167633    -0.30547415     6.4497595      6.4497595      6.4497595      0              0              0              0.81995896   
     24700   0.91829936     0.82222781    -4.3098742     -2.249126       0.51590039     1.0012072      0.53677605     0.0097178895  -0.40344124    -0.18581781    -0.11324427     6.4438216      6.4438216      6.4438216      0              0              0              0.82222781   
     24800   1.0077601      0.82474624    -4.4310933     -2.3628246      0.42300993     0.22591477     0.56128756     0.48182745     0.22799477     0.23778092     0.14637023     6.437256       6.437256       6.437256       0              0              0              0.82474624   
     24900   0.91863371     0.82770188    -4.2761452     -1.4887918      1.0656982      1.2211058      1.5246203      0.45136854    -0.26055416    -0.28734486     0.049128662    6.4295846      6.4295846      6.4295846      0              0              0              0.82770188   
     25000   1.0009531      0.83016022    -4.3632071     -1.7823939      0.82026675     1.1374391      0.19045335     1.1329078      0.50044123     0.46257447     0.82032804     6.4232317      6.4232317      6.4232317      0              0              0              0.83016022   
     25100   1.0111561      0.83199329    -4.3277811     -1.8069337      0.76520459     0.86826034     0.57479635     0.85255709    -0.13879254    -0.15260142     0.091435525    6.4185109      6.4185109      6.4185109      0              0              0              0.83199329   
     25200   1.0505697      0.83322718    -4.326128      -0.689749       1.5667729      0.9224587      1.5340156      2.2438443     -0.53329901     0.17476996    -0.037875269    6.4153411      6.4153411      6.4153411      0              0              0              0.83322718   
     25300   1.1166864      0.83289048    -4.391877      -1.6382814      0.82300271     1.0738096      0.76830121     0.62689732    -0.12102621    -0.074553307   -0.021804047    6.4162054      6.4162054      6.4162054      0              0              0              0.83289048   
     25400   1.0458433      0.83308968    -4.291109      -1.3808221      1.0219479      0.87458669     1.1644994      1.0267576      0.23802831     0.21276768     0.47734386     6.415694       6.415694       6.415694       0              0              0              0.83308968   
     25500   1.0239405      0.83305379    -4.3127544     -1.3331662      1.099144       1.0508242      0.79853016     1.4480776      0.4095519      0.07732904     0.5807941      6.4157861      6.4157861      6.4157861      0              0              0              0.83305379   
     25600   0.99853679     0.83234032    -4.373843      -1.74329        0.86278644     0.79876418     0.76951692     1.0200782     -0.098788219   -0.27345395    -0.28130956     6.4176188      6.4176188      6.4176188      0              0              0              0.83234032   
     25700   0.98819627     0.83239433    -4.4409226     -2.1734924      0.59973804     0.51213842     0.75540734     0.53166837     0.29729518     0.13236228    -0.0940038      6.41748        6.41748        6.41748        0              0              0              0.83239433   
     25800   1.0276465      0.83452979    -4.5571875     -2.9765823      0.03553799     0.31039445     0.40882582    -0.6126063      0.19511338     0.074310118   -0.080829978    6.4120014      6.4120014      6.4120014      0              0              0              0.83452979   
     25900   0.92057176     0.83822893    -4.4348892     -1.9147085      0.87345542     0.49715602     0.74356694     1.3796433     -0.67732683    -0.09698011     0.25068352     6.4025554      6.4025554      6.4025554      0              0              0              0.83822893   
     26000   0.85744242     0.84079229    -4.3442206     -1.8622898      0.91890797     1.1539762      0.51465119     1.0880965     -0.31161148    -0.53416656     0.40259317     6.3960422      6.3960422      6.3960422      0              0              0              0.84079229   
     26100   1.0276519      0.84254891    -4.5776644     -1.9369566      0.84786264     1.199992       0.31800494     1.025591      -0.060671695   -0.28709987     0.042616726    6.3915941      6.3915941      6.3915941      0              0              0              0.84254891   
     26200   0.98385148     0.84401245    -4.4796919     -1.712519       0.99652898     1.1462342      0.49541584     1.3479369     -0.091646584   -0.073329379    0.16417697     6.3878975      6.3878975      6.3878975      0              0              0              0.84401245   
     26300   0.98353327     0.84505803    -4.4278375     -1.6349669      1.0178703      0.58872041     1.2271606      1.2377298      0.37965778    -0.17610057    -0.25590244     6.3852619      6.3852619      6.3852619      0              0              0              0.84505803   
     26400   1.037562       0.84518314    -4.4452366     -1.0664695      1.4062356      2.2562737      0.99005073     0.97238231     0.087641518   -0.22517349     0.30322753     6.3849468      6.3849468      6.3849468      0              0              0              0.84518314   
     26500   1.0001434      0.84422227    -4.3306558     -1.0165948      1.3978378      1.4219653      1.9223054      0.84924269    -0.12666706     0.27015092     0.2577757      6.3873683      6.3873683      6.3873683      0              0              0              0.84422227   
     26600   1.1290402      0.84268624    -4.458015      -1.2175941      1.1915035      1.6536528      1.4615019      0.45935574     0.055240928   -0.48162121     0.21533059     6.3912469      6.3912469      6.3912469      0              0              0              0.84268624   
     26700   1.136923       0.84162041    -4.4171402     -1.102108       1.2380807      1.0296227      0.85094349     1.833676      -0.18506409     0.23187877     0.39112981     6.3939437      6.3939437      6.3939437      0              0              0              0.84162041   
     26800   1.0743474      0.84062611    -4.3300153     -0.98194506     1.3332381      0.90982188     1.1805573      1.9093352     -0.43515858     0.06011249     0.57972705     6.3964636      6.3964636      6.3964636      0              0              0              0.84062611   
     26900   1.0697023      0.83884887    -4.3853098     -1.4724848      1.0037927      1.5176479      0.13503205     1.3586983     -0.30548292     0.27214089     0.18894476     6.4009778      6.4009778      6.4009778      0              0              0              0.83884887   
     27000   0.99859436     0.83769504    -4.4007631     -1.677807       0.93864034     0.50341468     0.87905798     1.4334484      0.23238847    -0.11391477     0.63373482     6.4039153      6.4039153      6.4039153      0              0              0              0.83769504   
     27100   0.98047086     0.83775507    -4.4675353     -2.4982367      0.3853261      0.6697967      0.11585368     0.37032794     0.089130299   -0.010150485   -0.16523562     6.4037623      6.4037623      6.4037623      0              0              0              0.83775507   
     27200   0.90418003     0.83926914    -4.3964352     -2.1176356      0.70903811     1.0023031      0.35096416     0.77384703    -0.32004698    -0.11071341    -0.11054391     6.3999092      6.3999092      6.3999092      0              0              0              0.83926914   
     27300   0.95900072     0.84126989    -4.4828678     -1.8377219      0.92833158     1.0638622      0.88062835     0.8405042      0.11303854     0.16389414    -0.19851714     6.3948316      6.3948316      6.3948316      0              0              0              0.84126989   
     27400   0.94831157     0.84277628    -4.4502763     -1.4512042      1.213381       1.1475923      0.89181591     1.6007349      0.50853986     0.41689237     0.16967661     6.3910192      6.3910192      6.3910192      0              0              0              0.84277628   
     27500   0.93509741     0.84317193    -4.3880992     -1.901196       0.83648042     0.68537216     0.67187252     1.1521966      0.13799536    -0.69442453     0.2418468      6.3900194      6.3900194      6.3900194      0              0              0              0.84317193   
     27600   0.96826898     0.84434649    -4.3858907     -1.3777652      1.1997274      0.8931582      1.7721821      0.93384186    -0.44166546    -0.46556529     0.38642598     6.387055       6.387055       6.387055       0              0              0              0.84434649   
[...]
    136000   0.10280697     0.27039944    -2.8700099     -6.0931708     -0.83002803    -1.6204812     -0.37086857    -0.49873428    -0.12293024     0.21401754     0.011451061    23.115287      5.9327876      5.9327876      0              0              0              0.27039944   
    137000   0.097987757    0.26770892    -2.8749464     -5.7178277     -0.72746932    -1.5533194     -0.24850657    -0.38058204    -0.075156903    0.19522761    -0.034097092    23.3476        5.9327876      5.9327876      0              0              0              0.26770892   
    138000   0.099216165    0.26504517    -2.8407503     -5.9211184     -0.7778951     -1.6942041     -0.29689266    -0.34258853    -0.1414544      0.27350469     0.037325664    23.582247      5.9327876      5.9327876      0              0              0              0.26504517   
    139000   0.10316823     0.26240793    -2.7866198     -5.9475947     -0.79079099    -1.613445      -0.39799526    -0.36093274    -0.091858278    0.22640382    -0.027011041    23.819253      5.9327876      5.9327876      0              0              0              0.26240793   
    140000   0.12196458     0.25979693    -2.8401963     -5.7363714     -0.72700797    -1.5183703     -0.29177234    -0.37088124    -0.1072585      0.18638779    -0.029894136    24.05864       5.9327876      5.9327876      0              0              0              0.25979693   
    141000   0.098441436    0.2572119     -2.8667087     -6.0525885     -0.77930616    -1.6976071     -0.35680648    -0.28350489    -0.15433618     0.26217136    -0.040078052    24.300433      5.9327876      5.9327876      0              0              0              0.2572119    
    142000   0.095919409    0.2546526     -2.7946175     -5.9315704     -0.75935383    -1.6400757     -0.25962127    -0.37836451    -0.15588081     0.19855086     0.013757156    24.544657      5.9327876      5.9327876      0              0              0              0.2546526    
    143000   0.10411608     0.25211877    -2.7720569     -6.0092994     -0.77758832    -1.7458459     -0.24280931    -0.34410973    -0.17487802     0.20031311     0.0074395093   24.791335      5.9327876      5.9327876      0              0              0              0.25211877   
    144000   0.098381141    0.24961014    -2.7108057     -6.1644797     -0.81702118    -1.8452212     -0.30937307    -0.29646931    -0.1590457      0.25838959     0.042095398    25.040492      5.9327876      5.9327876      0              0              0              0.24961014   
    145000   0.12485259     0.24712648    -3.0603814     -4.798179      -0.43227817    -0.75821977    -0.30158328    -0.23703145    -0.059759366    0.072683044    0.019531668    25.292153      5.9327876      5.9327876      0              0              0              0.24712648   
    146000   0.082454177    0.24466753    -3.1547891     -5.0874785     -0.45725076    -0.75431691    -0.2814689     -0.33596647    -0.15088519     0.1165549      0.019310995    25.546343      5.9327876      5.9327876      0              0              0              0.24466753   
    147000   0.10626638     0.24223305    -3.1058426     -5.3053351     -0.51928052    -0.98099305    -0.28754874    -0.28929977    -0.085112977    0.16568368     0.002192153    25.803088      5.9327876      5.9327876      0              0              0              0.24223305   
    148000   0.095140973    0.23982279    -3.1298049     -5.2758262     -0.49883559    -0.93955654    -0.26247613    -0.29447411    -0.12052205     0.12819064    -0.0091619761   26.062414      5.9327876      5.9327876      0              0              0              0.23982279   
    149000   0.094533233    0.23743651    -3.1012415     -5.6648891     -0.58382152    -1.0706878     -0.2940457     -0.38673105    -0.11561751     0.14356732     0.017465844    26.324345      5.9327876      5.9327876      0              0              0              0.23743651   
    150000   0.11192601     0.23507398    -3.0624227     -5.6786104     -0.59478788    -1.2289132     -0.24018091    -0.31526948    -0.1293949      0.17678684    -0.035715226    26.588909      5.9327876      5.9327876      0              0              0              0.23507398   
    151000   0.098701008    0.23273496    -3.0142081     -5.6803244     -0.5952572     -1.2828336     -0.25647155    -0.24646648    -0.14609295     0.16348951    -0.012623858    26.856132      5.9327876      5.9327876      0              0              0              0.23273496   
    152000   0.10774381     0.2304192     -2.9547093     -5.7152174     -0.61193386    -1.354451      -0.22860605    -0.25274453    -0.17688591     0.16498054     0.053339629    27.126041      5.9327876      5.9327876      0              0              0              0.2304192    
    153000   0.18424369     0.22812649    -3.093953      -5.0107053     -0.45453914    -0.94582929    -0.20250156    -0.21528658    -0.12982379     0.11166273     0.019420486    27.398662      5.9327876      5.9327876      0              0              0              0.22812649   
    154000   0.11483382     0.2258566     -3.5083987     -3.8427293     -0.10383655     0.015196074   -0.14913741    -0.17756831     0.014207679    0.014551608   -0.046100643    27.674023      5.9327876      5.9327876      0              0              0              0.2258566    
    155000   0.099538528    0.22360929    -3.6486086     -4.243114      -0.15105144    -0.07622856    -0.19040146    -0.1865243      0.017887886    0.04027176     0.010591904    27.952152      5.9327876      5.9327876      0              0              0              0.22360929   
    156000   0.092377419    0.22138434    -3.705587      -4.1628464     -0.11977551     0.0017899835  -0.20347056    -0.15764594    -0.043249062   -0.023857554   -0.037791695    28.233076      5.9327876      5.9327876      0              0              0              0.22138434   
    157000   0.093937917    0.21918153    -3.7917216     -4.2457895     -0.11841187    -0.09986934    -0.13941482    -0.11595146    -0.0021569192  -0.0015227604  -0.014192995    28.516823      5.9327876      5.9327876      0              0              0              0.21918153   
    158000   0.093060329    0.21700063    -3.9228105     -3.9565285     -0.034051463    0.047412934   -0.068292485   -0.081274837   -0.0082351584  -0.038417265    0.035526325    28.803422      5.9327876      5.9327876      0              0              0              0.21700063   
    159000   0.12525265     0.21484144    -3.9508437     -4.3307523     -0.11071134    -0.11739313    -0.088851083   -0.12588981     0.04054608     0.030648151    0.047564775    29.092901      5.9327876      5.9327876      0              0              0              0.21484144   
    160000   0.11381221     0.21270373    -4.0961464     -4.5554838     -0.12166694    -0.038643372   -0.1439148     -0.18244264     0.020216865    0.015822532    0.030886875    29.385289      5.9327876      5.9327876      0              0              0              0.21270373   
    161000   0.08965568     0.2105873     -4.1805896     -4.6308879     -0.11182367    -0.015534581   -0.15652728    -0.16340913    -0.018994472    0.040735378    0.01912201     29.680616      5.9327876      5.9327876      0              0              0              0.2105873    
    162000   0.10072996     0.20849192    -4.303332      -4.3991588     -0.04665788     0.051024866   -0.11540747    -0.075591036   -0.014128075   -0.030931472    0.011441957    29.978911      5.9327876      5.9327876      0              0              0              0.20849192   
    163000   0.10740542     0.20641739    -4.3374275     -4.841178      -0.124611      -0.019874418   -0.19296016    -0.16099842    -0.036824472   -0.0055528556   0.057102652    30.280205      5.9327876      5.9327876      0              0              0              0.20641739   
    164000   0.10527859     0.2043635     -4.3844199     -4.8094247     -0.1081516     -0.018041574   -0.1845481     -0.12186514    -0.008021974    0.026236382    0.01802046     30.584526      5.9327876      5.9327876      0              0              0              0.2043635    
    165000   0.10165957     0.20233005    -4.4344518     -5.044674      -0.14015017    -0.036212201   -0.21411217    -0.17012614     0.00030517674 -0.045274901    0.017160322    30.891905      5.9327876      5.9327876      0              0              0              0.20233005   
    166000   0.11147287     0.20031683    -4.505648      -4.8019387     -0.084253988   -0.01561478    -0.20293051    -0.034216677   -0.0021710787   0.016668299   -0.012494407    31.202374      5.9327876      5.9327876      0              0              0              0.20031683   
    167000   0.1108002      0.19832365    -4.5071561     -4.9184278     -0.10396504     0.003941505   -0.15482905    -0.16100758     0.0077697233   0.030783483    0.024861207    31.515963      5.9327876      5.9327876      0              0              0              0.19832365   
    168000   0.09728918     0.19635029    -4.5667386     -5.1075745     -0.12245834    -0.0021212786  -0.21643879    -0.14881495    -0.042094884   -0.032450234    0.072949015    31.832704      5.9327876      5.9327876      0              0              0              0.19635029   
    169000   0.099876987    0.19439658    -4.5932812     -5.0880374     -0.11377901     0.0040452119  -0.22831204    -0.11707022    -0.02327604    -0.019557546   -0.015953618    32.152628      5.9327876      5.9327876      0              0              0              0.19439658   
    170000   0.10457282     0.1924623     -4.598493      -5.1775405     -0.12862124     0.081039966   -0.30609264    -0.16081104    -0.011739432   -0.005831417    0.03617637     32.475767      5.9327876      5.9327876      0              0              0              0.1924623    
    171000   0.10802586     0.19054727    -4.6189612     -5.1504841     -0.12000173     0.034133949   -0.28308253    -0.11105661     0.015194884    0.023890207    0.014517285    32.802154      5.9327876      5.9327876      0              0              0              0.19054727   
    172000   0.1069393      0.18865129    -4.6901719     -5.2931777     -0.13078897    -0.0099777955  -0.17298159    -0.20940753     0.010497666    0.0058881914   0.018922202    33.131821      5.9327876      5.9327876      0              0              0              0.18865129   
    173000   0.10092479     0.18677418    -4.7179633     -5.0995001     -0.090359145    0.028210236   -0.14986223    -0.14942544    -0.0030583746   0.010322153    0.021537488    33.464801      5.9327876      5.9327876      0              0              0              0.18677418   
    174000   0.10497923     0.18491574    -4.7171924     -5.0952389     -0.089890559    0.02789006    -0.16635855    -0.13120319     0.023406532    0.0098886277   0.025531806    33.801128      5.9327876      5.9327876      0              0              0              0.18491574   
    175000   0.091187045    0.1830758     -4.7120317     -5.3809013     -0.13397259    -0.057572177   -0.21491041    -0.12943519    -0.029180547    0.028117964    0.03507931     34.140835      5.9327876      5.9327876      0              0              0              0.1830758    
    176000   0.083335653    0.18125417    -4.7113019     -5.1808861     -0.097871106   -0.015355273   -0.14754461    -0.13071343    -0.0031534666  -0.02358828     0.033157176    34.483956      5.9327876      5.9327876      0              0              0              0.18125417   
    177000   0.094941974    0.17945066    -4.7078909     -5.3241697     -0.12365451    -0.00479989    -0.19820116    -0.16796248     0.012356038    0.030295134    0.059153758    34.830526      5.9327876      5.9327876      0              0              0              0.17945066   
    178000   0.097984183    0.17766509    -4.7330899     -5.2522233     -0.10746714    -0.02701222    -0.16923179    -0.12615742    -0.0053250168  -0.011823996    0.023551545    35.180578      5.9327876      5.9327876      0              0              0              0.17766509   
    179000   0.09578394     0.1758973     -4.7267509     -5.2124684     -0.1005293     -0.017529237   -0.16436229    -0.11969637     0.046161228    0.0047865453   0.020672969    35.534149      5.9327876      5.9327876      0              0              0              0.1758973    
    180000   0.098937661    0.17414709    -4.7177538     -5.0978415     -0.083551372    0.020003825   -0.10890034    -0.16175761     0.02481944     0.00075234598 -0.011288505    35.891273      5.9327876      5.9327876      0              0              0              0.17414709   
    181000   0.089168673    0.1724143     -4.7255973     -5.3379053     -0.11683298     0.013822274   -0.17900665    -0.18531457     0.012144568   -0.010576578    0.020891212    36.251987      5.9327876      5.9327876      0              0              0              0.1724143    
    182000   0.09978645     0.17069874    -4.7135629     -5.2288006     -0.10306619     0.0014661665  -0.19173962    -0.11892512    -0.043417114    0.023967139   -0.010293563    36.616325      5.9327876      5.9327876      0              0              0              0.17069874   
    183000   0.10233971     0.16900026    -4.7264728     -5.2200911     -0.099304594    0.016729861   -0.16840214    -0.14624151    -0.013268967    0.029912191    0.012323319    36.984325      5.9327876      5.9327876      0              0              0              0.16900026   
    184000   0.093956594    0.16731868    -4.7444289     -5.112696      -0.077346461    0.042107153   -0.17626647    -0.097880064    0.006382976   -0.0062115205  -0.031693258    37.356024      5.9327876      5.9327876      0              0              0              0.16731868   
    185000   0.10762809     0.16565383    -4.7271363     -5.3278706     -0.11465794    -0.040610422   -0.15750277    -0.14586062    -0.023359162   -0.021156083   -0.0044332578   37.731458      5.9327876      5.9327876      0              0              0              0.16565383   
    186000   0.10185525     0.16400555    -4.7414389     -5.2149467     -0.093263504   -0.023279334   -0.13990474    -0.11660644    -0.041494545    0.026546716    0.021759771    38.110666      5.9327876      5.9327876      0              0              0              0.16400555   
    187000   0.10506161     0.16237367    -4.7296801     -5.0130851     -0.064980377    0.054431377   -0.13446958    -0.11490293    -0.047019828   -0.012856544    0.0095003793   38.493684      5.9327876      5.9327876      0              0              0              0.16237367   
    188000   0.10216336     0.16075802    -4.7294869     -4.9490759     -0.054375355    0.045705734   -0.13235566    -0.076476142   -0.0059558519  -0.0098351156   0.017844768    38.880552      5.9327876      5.9327876      0              0              0              0.16075802   
    189000   0.087204054    0.15915845    -4.736698      -5.0051079     -0.057667735    0.038673652   -0.14959102    -0.062085842   -0.020336373    0.030439537    0.031610124    39.271308      5.9327876      5.9327876      0              0              0              0.15915845   
    190000   0.10394421     0.1575748     -4.736733      -4.9543147     -0.053391851    0.062560155   -0.14423263    -0.078503081   -0.0068012023  -0.00422535    -0.0082368482   39.665991      5.9327876      5.9327876      0              0              0              0.1575748    
    191000   0.098712708    0.15600691    -4.7386136     -5.1988866     -0.086172791    0.00091434552 -0.16731136    -0.09212136    -0.024577358   -0.013259942   -0.017094036    40.064641      5.9327876      5.9327876      0              0              0              0.15600691   
    192000   0.094550173    0.15445461    -4.7466967     -5.0117544     -0.057032195    0.074944873   -0.14023627    -0.10580518     0.026698131    0.016398556   -0.0060688797   40.467298      5.9327876      5.9327876      0              0              0              0.15445461   
    193000   0.10628017     0.15291776    -4.739716      -5.1378213     -0.077394251    0.017104173   -0.14641629    -0.10287064    -0.046068332   -0.0094127589   0.014707811    40.874001      5.9327876      5.9327876      0              0              0              0.15291776   
    194000   0.098744572    0.15139621    -4.7492107     -5.3526814     -0.10334126    -0.029346197   -0.17048891    -0.11018868     0.0052372916   0.020191042    0.037208311    41.284791      5.9327876      5.9327876      0              0              0              0.15139621   
    195000   0.09698073     0.14988979    -4.7395199     -5.2582353     -0.090405232   -0.016748425   -0.14925252    -0.10521475    -0.0044459851   0.00010113732  0.028326424    41.69971       5.9327876      5.9327876      0              0              0              0.14988979   
    196000   0.096575253    0.14839836    -4.7332594     -5.1694466     -0.078290359    0.04903663    -0.14023095    -0.14367676    -0.0004843414  -0.011742585    0.0020891961   42.118799      5.9327876      5.9327876      0              0              0              0.14839836   
    197000   0.095729562    0.14692177    -4.7578078     -5.1067706     -0.065692623    0.0075659301  -0.15016204    -0.054481756   -0.025243013   -0.0054510332  -0.028393593    42.5421        5.9327876      5.9327876      0              0              0              0.14692177   
    198000   0.10058626     0.14545988    -4.7381136     -5.5055791     -0.12133873    -0.0453069     -0.19375915    -0.12495013    -0.0050703577   0.008353177    0.0018300448   42.969656      5.9327876      5.9327876      0              0              0              0.14545988   
    199000   0.099784048    0.14401253    -4.7307894     -5.4146104     -0.10902386    -0.058835071   -0.14472303    -0.12351349     0.026731538    0.0048737576   0.049313435    43.401508      5.9327876      5.9327876      0              0              0              0.14401253   
    200000   0.099648712    0.14257958    -4.7511129     -5.655434      -0.1364936     -0.01634368    -0.24159779    -0.15153934    -0.003474953    0.0082016467   0.00093142417  43.8377        5.9327876      5.9327876      0              0              0              0.14257958   
Loop time of 23.1417 on 12 procs for 200000 steps with 200 atoms

Performance: 1493409.795 tau/day, 8642.418 timesteps/s
98.4% CPU use with 12 MPI tasks x 1 OpenMP threads

MPI task timing breakdown:
Section |  min time  |  avg time  |  max time  |%varavg| %total
---------------------------------------------------------------
Pair    | 0.53804    | 0.86545    | 1.2627     |  24.6 |  3.74
Bond    | 0.038101   | 0.058479   | 0.07885    |   5.5 |  0.25
Neigh   | 0.042559   | 0.043349   | 0.044239   |   0.3 |  0.19
Comm    | 5.3154     | 5.6904     | 6.0028     |   8.6 | 24.59
Output  | 0.021465   | 0.021632   | 0.022822   |   0.2 |  0.09
Modify  | 15.813     | 15.9       | 16.071     |   1.9 | 68.71
Other   |            | 0.5624     |            |       |  2.43

Nlocal:        16.6667 ave          35 max           0 min
Histogram: 2 2 2 0 0 1 0 1 2 2
Nghost:         406.75 ave         508 max         309 min
Histogram: 3 2 1 0 0 0 1 1 1 3
Neighs:        945.833 ave        2249 max           0 min
Histogram: 3 3 0 0 1 1 0 1 1 2

Total # of neighbors = 11350
Ave neighs/atom = 56.75
Ave special neighs/atom = 9.4
Neighbor list builds = 551
Dangerous builds = 0
System init for write_data ...
Generated 0 of 1 mixed pair_coeff terms from geometric mixing rule
WARNING: Not all mixed pair coeffs generated from mixing. Use write_data with 'pair ij' option to store all pair coeffs. (src/write_data.cpp:309)
Total wall time: 0:00:23
