LAMMPS (23 Jun 2022)
OMP_NUM_THREADS environment is not set. Defaulting to 1 thread. (src/comm.cpp:98)
  using 1 OpenMP thread(s) per MPI task
Reading data file ...
  orthogonal box = (96.927397 96.927397 96.927397) to (103.0726 103.0726 103.0726)
  3 by 2 by 2 MPI processor grid
  reading atoms ...
  200 atoms
  scanning bonds ...
  4 = max bonds/atom
  reading bonds ...
  224 bonds
Finding 1-2 1-3 1-4 neighbors ...
  special bond factors lj:    0        0        0       
  special bond factors coul:  0        0        0       
     4 = max # of 1-2 neighbors
     4 = max # of 1-3 neighbors
    10 = max # of 1-4 neighbors
    12 = max # of special neighbors
  special bonds CPU = 0.001 seconds
  read_data CPU = 0.006 seconds
Finding 1-2 1-3 1-4 neighbors ...
  special bond factors lj:    0        1        1       
  special bond factors coul:  0        0        0       
     4 = max # of 1-2 neighbors
     4 = max # of 1-3 neighbors
    10 = max # of 1-4 neighbors
    12 = max # of special neighbors
  special bonds CPU = 0.000 seconds
Generated 0 of 1 mixed pair_coeff terms from geometric mixing rule
Neighbor list info ...
  update every 1 steps, delay 0 steps, check yes
  max neighbors/atom: 2000, page size: 100000
  master list distance cutoff = 5.5
  ghost atom cutoff = 5.5
  binsize = 2.75, bins = 3 3 3
  1 neighbor lists, perpetual/occasional/extra = 1 0 0
  (1) pair lj/cut, perpetual
      attributes: half, newton on
      pair build: half/bin/newton
      stencil: half/bin/3d
      bin: standard
WARNING: Proc sub-domain size < neighbor skin, could lead to lost atoms (src/domain.cpp:970)
Setting up Verlet run ...
  Unit style    : lj
  Current step  : 0
  Time step     : 0.002
WARNING: Inconsistent image flags (src/domain.cpp:819)
Per MPI rank memory allocation (min/avg/max) = 8.461 | 8.461 | 8.462 Mbytes
   Step          Temp         Density         PotEng        Enthalpy        Press           Pxx            Pyy            Pzz            Pxy            Pxz            Pyz             Lx             Ly             Lz             Xy             Yz             Xz          Density    
         0   1.5            0.94801099    -4.0250477      1.6863694      2.9928424      3.3476234      2.0843687      3.5465351     -0.26516818     0.62816743    -0.099425704    6.1452059      6.1452059      6.1452059      0              0              0              0.94801099   
      1000   1.4264969      0.80293032    -2.8281703      0.76159697     1.0662335      1.6372761      0.236713       1.3247113      0.022533423    0.68639198    -0.1514496      6.4950367      6.4950367      6.4950367      0              0              0              0.80293032   
      2000   1.4724325      0.80019224    -2.9019364      0.29557732     0.72738075     1.2460933     -0.27934371     1.2153926     -0.088605746    0.51884018    -0.37333543     6.5024364      6.5024364      6.5024364      0              0              0              0.80019224   
      3000   1.3505513      0.83899456    -3.1358348      0.64021115     1.3426568      1.917071       0.73934119     1.3715583     -0.21418553    -0.83586706    -0.12913401     6.4006072      6.4006072      6.4006072      0              0              0              0.83899456   
      4000   1.4591532      0.79707442    -2.7831107      1.4380598      1.4806631      1.5041152      0.79548913     2.1423849     -0.23932966     0.27050333    -0.072654883    6.5109037      6.5109037      6.5109037      0              0              0              0.79707442   
      5000   1.389899       0.79114182    -2.8806132      0.0057377626   0.58395379     0.4995913      0.22168501     1.030585      -0.824278       0.2300466     -0.39511567     6.5271378      6.5271378      6.5271378      0              0              0              0.79114182   
      6000   1.3048033      0.80457882    -2.9647158     -0.77883716     0.17441789    -0.045787943    0.62988455    -0.060842924   -0.51628117    -0.088980268    0.17444455     6.4905977      6.4905977      6.4905977      0              0              0              0.80457882   
      7000   1.4123706      0.80714045    -2.9384101      0.30493108     0.8330996      1.7405046     -0.020919562    0.77971372     1.1095688     -0.32681032    -0.044021451    6.4837241      6.4837241      6.4837241      0              0              0              0.80714045   
      8000   1.4364229      0.81171655    -2.9352724      1.5617265      1.7364371      1.4720807      1.9635768      1.7736537     -0.67980688     0.64708774     0.044249319    6.471517       6.471517       6.471517       0              0              0              0.81171655   
      9000   1.4228086      0.81719372    -3.0554653      0.035243344    0.71851148     0.74105632     0.38710973     1.0273684      0.3342506     -0.35969336     0.47289418     6.4570263      6.4570263      6.4570263      0              0              0              0.81719372   
     10000   1.3469526      0.80675944    -2.9958284      0.0066137982   0.72763504     0.49405557     0.44850941     1.2403401      0.50770869     0.10560795    -0.20516895     6.4847446      6.4847446      6.4847446      0              0              0              0.80675944   
     11000   1.6583669      0.79193965    -2.8090492      2.0511587      1.7171377      1.1285515      2.0096357      2.0132259      0.19097251    -0.13816801     0.8042295      6.5249451      6.5249451      6.5249451      0              0              0              0.79193965   
     12000   1.2794786      0.8204074     -2.9317253      0.7959325      1.3559366      1.4189121      2.2106178      0.4382797      0.079224802   -0.42224758     0.26314481     6.4485841      6.4485841      6.4485841      0              0              0              0.8204074    
     13000   1.3943366      0.81656692    -3.0851001      0.76413908     1.3125881      1.0865002      1.590551       1.2607131     -0.601687      -0.067208609   -0.33541593     6.458678       6.458678       6.458678       0              0              0              0.81656692   
     14000   1.3817771      0.81387453    -2.9968629      0.48898431     1.0532609      0.83841784     1.0237072      1.2976577     -0.448706       0.15596918     0.29028596     6.4657922      6.4657922      6.4657922      0              0              0              0.81387453   
     15000   1.4626032      0.81022392    -3.1443008      0.70966878     1.2308291      1.277343       1.1416653      1.273479      -0.88452749    -0.1772029      0.61194417     6.4754886      6.4754886      6.4754886      0              0              0              0.81022392   
     16000   1.3757314      0.82586827    -3.068649       0.49057276     1.1306457      0.94923922     1.9156128      0.52708505    -0.60267688     0.017794535    0.50224205     6.4343394      6.4343394      6.4343394      0              0              0              0.82586827   
     17000   1.2556889      0.80331615    -3.0481637     -0.045313158    0.82430079     0.8379588      0.94322419     0.69171939    -0.64146466     0.84133586     0.36946014     6.4939967      6.4939967      6.4939967      0              0              0              0.80331615   
     18000   1.4341737      0.80493834    -3.1469253     -0.3223602      0.50056979     0.77407583     0.60552953     0.12210401    -0.2862584      0.48417461     0.35025654     6.4896313      6.4896313      6.4896313      0              0              0              0.80493834   
     19000   1.3417397      0.8396852     -3.0676164      0.2733512      1.0216841     -0.16432349     2.0143974      1.2149783      0.040511922    0.012030702    0.093592338    6.3988519      6.3988519      6.3988519      0              0              0              0.8396852    
     20000   1.2312166      0.81603339    -3.1366954     -0.66883024     0.46756814     0.034550808    0.77094834     0.59720528     0.81685873    -0.11981683    -0.77684723     6.4600853      6.4600853      6.4600853      0              0              0              0.81603339   
     21000   1.3511793      0.82981526    -3.3127928      0.20072625     1.1292155      1.6938083      0.49079698     1.2030412      0.61961559    -0.10422168     0.41690444     6.4241216      6.4241216      6.4241216      0              0              0              0.82981526   
     22000   1.4279062      0.83453021    -3.1280975      0.75247731     1.3272253      0.25903624     1.932918       1.7897218      0.15526651    -0.351136       0.085096247    6.4120004      6.4120004      6.4120004      0              0              0              0.83453021   
     23000   1.2273423      0.7947404     -2.9273415     -0.52910977     0.40923594     0.91934384    -0.3418246      0.65018858    -0.058983841   -0.12214217     0.30258545     6.5172713      6.5172713      6.5172713      0              0              0              0.7947404    
     24000   1.2818994      0.84315956    -3.3071452     -0.96482839     0.3288951      0.6263905     -0.061135718    0.42143053     0.40263778    -0.81641135     0.40878567     6.3900507      6.3900507      6.3900507      0              0              0              0.84315956   
     25000   1.3155012      0.83667943    -3.2046239     -0.36947944     0.66307526     0.84017374     0.20453054     0.9445215      0.33492488    -0.079533912    0.2784785      6.4065054      6.4065054      6.4065054      0              0              0              0.83667943   
     26000   1.2126342      0.82910307    -3.3970965      0.071225696    1.2500353      1.3210144      1.6053968      0.82369486     0.179989       0.31935391     0.32979898     6.4259605      6.4259605      6.4259605      0              0              0              0.82910307   
     27000   1.2152488      0.84770487    -3.4336893     -1.2523193      0.28329619    -0.77633225     0.94047526     0.68574555     0.70815793    -0.42751432    -0.15883803     6.3786093      6.3786093      6.3786093      0              0              0              0.84770487   
     28000   1.1909802      0.82899237    -3.1476992     -0.030503789    1.0096052      1.1663916      0.82155631     1.0408678      0.71568382    -0.049376542    0.11810428     6.4262465      6.4262465      6.4262465      0              0              0              0.82899237   
     29000   1.3754892      0.83371787    -3.3525052     -0.26362428     0.78518279     1.2931127      0.39169905     0.67073658     0.28292608     0.72963232    -0.67081474     6.4140822      6.4140822      6.4140822      0              0              0              0.83371787   
     30000   1.0311259      0.85111474    -3.2765857      0.069761426    1.3984524      1.0164757      1.8998655      1.2790161      0.254111       0.31367965     0.31626677     6.3700796      6.3700796      6.3700796      0              0              0              0.85111474   
     31000   1.2683295      0.85900106    -3.4533296     -0.19310262     1.0676956      0.62617267     1.4866222      1.0902918      0.023493681   -0.2617424      0.43673148     6.3505254      6.3505254      6.3505254      0              0              0              0.85900106   
     32000   1.3327574      0.86027264    -3.4315484      0.098879929    1.2053889      1.6525813      1.6177243      0.34586105    -0.26145459    -0.32206791     0.1503738      6.347395       6.347395       6.347395       0              0              0              0.86027264   
     33000   1.1908539      0.83443364    -3.4154728     -0.96005246     0.51436833     0.39661908     0.75299159     0.39349432    -0.15410207     0.30177142    -0.036273971    6.4122477      6.4122477      6.4122477      0              0              0              0.83443364   
     34000   1.1525422      0.83095837    -3.0607734     -0.35204522     0.74677389     0.90545712     0.38763019     0.94723436     0.86001418    -0.56155065     0.61754059     6.4211745      6.4211745      6.4211745      0              0              0              0.83095837   
     35000   1.1173815      0.86626485    -3.5472676      0.21437197     1.6490121      1.2742515      1.6340141      2.0387705     -0.66540012     0.40801186     0.068556615    6.3327255      6.3327255      6.3327255      0              0              0              0.86626485   
     36000   1.1576238      0.86511727    -3.5130568     -1.0694782      0.56297512     0.08610573     0.34761881     1.2552008     -0.22553016     0.34317954    -0.091280342    6.3355244      6.3355244      6.3355244      0              0              0              0.86511727   
     37000   1.0611673      0.83813135    -3.5347615     -1.9258647      0.019128111    0.42436773     0.13451391    -0.5014973      0.24912545    -0.082074427    0.098855824    6.4028039      6.4028039      6.4028039      0              0              0              0.83813135   
     38000   1.0879742      0.86259395    -3.666248      -1.0473712      0.78031449     0.57999456     0.77621778     0.98473114    -0.36392889    -0.033531705   -0.6043834      6.3416961      6.3416961      6.3416961      0              0              0              0.86259395   
     39000   1.1125345      0.86372766    -3.5606849     -1.1102383      0.62030478     0.67193944     0.68946993     0.49950496     0.17911811     0.52718671     0.56446659     6.3389202      6.3389202      6.3389202      0              0              0              0.86372766   
     40000   1.1212841      0.83663639    -3.4097382     -0.6704284      0.81061948     0.95320312     1.0152904      0.46336491     0.14367758    -0.24955866    -0.45130699     6.4066153      6.4066153      6.4066153      0              0              0              0.83663639   
     41000   1.0260623      0.88734857    -3.7136277     -0.23149598     1.5736189      1.6954294      0.97492017     2.0505072     -0.021932806   -0.18210999     0.13045995     6.282167       6.282167       6.282167       0              0              0              0.88734857   
     42000   1.111584       0.85166791    -3.6378175     -1.5646826      0.32061103     0.11835747     0.7798453      0.063630322   -0.14034477     0.64741546     0.26087767     6.3687001      6.3687001      6.3687001      0              0              0              0.85166791   
     43000   1.2231711      0.86606605    -3.5962438     -0.19677517     1.2391718      1.3606703      1.110737       1.2461082     -0.021071874    0.0031630969   0.56525884     6.33321        6.33321        6.33321        0              0              0              0.86606605   
     44000   1.07848        0.8795203     -3.6760669     -0.41942948     1.3168866      2.0645102      0.82179335     1.0643563      0.075113061    0.32966779     0.16439511     6.3007503      6.3007503      6.3007503      0              0              0              0.8795203    
     45000   1.0542642      0.875424      -3.6909386     -0.63815422     1.1772822      1.0885505      0.92158075     1.5217153     -0.44222528     0.17148247     0.22427761     6.3105626      6.3105626      6.3105626      0              0              0              0.875424     
     46000   1.048626       0.85868575    -3.5698935      0.048998949    1.6032586      1.776551       1.4532775      1.5799471      0.1494047     -0.11493465     0.25587272     6.3513026      6.3513026      6.3513026      0              0              0              0.85868575   
     47000   1.0524099      0.88353529    -3.8394541     -1.2159963      0.84557222    -0.18818337     1.5221995      1.2027005     -0.27337556     0.14642715    -0.0081107901   6.2911918      6.2911918      6.2911918      0              0              0              0.88353529   
     48000   1.1557774      0.89473863    -3.8585635     -0.36763667     1.4364045      1.4444297      1.3691148      1.495669       0.85369056    -0.11271207    -0.56578337     6.2648234      6.2648234      6.2648234      0              0              0              0.89473863   
     49000   0.93031809     0.88162723    -3.6845857     -0.90494059     1.1149742      0.74179209     1.1641116      1.439019       0.53360113     0.08190423    -0.085438784    6.2957271      6.2957271      6.2957271      0              0              0              0.88162723   
     50000   0.98084027     0.88606086    -3.9638044     -1.8818929      0.49781104     0.28848132     0.32048424     0.88446756    -0.34152887    -0.55065028    -0.26597376     6.2852088      6.2852088      6.2852088      0              0              0              0.88606086   
     51000   1.0225092      0.8948289     -3.9196653     -1.8148286      0.4707953      0.38404802     0.36728679     0.6610511     -0.29562474     0.10818926    -0.22595922     6.2646127      6.2646127      6.2646127      0              0              0              0.8948289    
     52000   1.0353622      0.87856764    -3.6938955     -1.0168129      0.90396979     0.35576365     1.2404487      1.115697       0.60184596     0.0011233139  -0.07472796     6.3030269      6.3030269      6.3030269      0              0              0              0.87856764   
     53000   1.0077586      0.89108261    -3.913095      -0.89272725     1.2283072      1.184616       1.5482077      0.95209805    -0.063651332   -0.40960014     0.1346469      6.2733796      6.2733796      6.2733796      0              0              0              0.89108261   
     54000   0.93034889     0.90632644    -4.0171328     -1.0308884      1.3163969      1.8494351      0.21166922     1.8880864     -0.84759115     0.37584936     0.02269211     6.2380092      6.2380092      6.2380092      0              0              0              0.90632644   
     55000   0.93858096     0.88585687    -3.8992963     -1.2676082      0.99123841     0.888268       1.2141796      0.87126761    -0.20485125    -0.017071329   -0.33125914     6.2856912      6.2856912      6.2856912      0              0              0              0.88585687   
     56000   0.91213458     0.88627552    -3.9008214     -1.6256368      0.73627235     0.37457947     1.4274242      0.40681339     0.062116427   -0.0448264     -0.062247487    6.2847013      6.2847013      6.2847013      0              0              0              0.88627552   
     57000   0.99166885     0.92227285    -4.1524543     -0.33699218     1.9580661      1.8688291      1.8656979      2.1396712      0.32960702    -0.36141891     0.01868077     6.2018475      6.2018475      6.2018475      0              0              0              0.92227285   
     58000   0.92186496     0.89647578    -4.0096285     -1.7137263      0.74979504     0.50679423     0.9918916      0.75069929    -0.34360923     0.15949675    -0.52136034     6.2607742      6.2607742      6.2607742      0              0              0              0.89647578   
     59000   0.88327178     0.92348641    -4.1729896     -1.3940358      1.2262814      1.9905665      0.52732336     1.1609543     -0.33351494     0.14733697     0.95033631     6.1991297      6.1991297      6.1991297      0              0              0              0.92348641   
     60000   0.90828743     0.90634831    -4.0686416     -1.7715652      0.77571668     1.3459225      1.2164972     -0.23526968    -0.07463064     0.38823278    -0.11550435     6.237959       6.237959       6.237959       0              0              0              0.90634831   
     61000   0.8629224      0.8845695     -3.8264555     -1.2838339      1.0089801      0.37535289     1.564879       1.0867084     -0.16391379    -0.17047612    -0.15386222     6.288739       6.288739       6.288739       0              0              0              0.8845695    
     62000   0.80705914     0.91850725    -4.1311421     -1.5630952      1.1385408      0.65672        1.1232593      1.6356431     -0.18372291     0.011615001    0.41100306     6.2103112      6.2103112      6.2103112      0              0              0              0.91850725   
     63000   0.87934545     0.90575363    -4.1150496     -1.8137893      0.81422082     0.65561971     0.91191094     0.87513182     0.32322313     0.49508445     0.37930223     6.2393239      6.2393239      6.2393239      0              0              0              0.90575363   
     64000   0.82902        0.90423358    -4.1137802     -2.2254545      0.53515291     0.14993742     0.38642124     1.0691001      0.136508      -0.16860175    -0.68111212     6.2428181      6.2428181      6.2428181      0              0              0              0.90423358   
     65000   0.87083574     0.90293873    -4.0743521     -1.6529619      0.92072486     0.9174352      1.02326        0.82147939    -0.5731619      0.36453708    -0.28614751     6.2458009      6.2458009      6.2458009      0              0              0              0.90293873   
     66000   0.91114756     0.89939973    -4.0364183     -2.0317117      0.52722719     1.4608995      0.36601894    -0.24523691     0.4845118      0.42295988     0.032461231    6.2539822      6.2539822      6.2539822      0              0              0              0.89939973   
     67000   0.80328468     0.93612131    -4.2806903     -0.80291456     1.9393654      2.1931779      1.6212519      2.0036663      1.0689823      0.15068397     0.38062178     6.1711132      6.1711132      6.1711132      0              0              0              0.93612131   
     68000   0.83291766     0.91549968    -4.0950792     -1.3569834      1.2442191      1.0947008      0.93957446     1.6983822     -0.51188759     0.69204827     0.10199161     6.2171044      6.2171044      6.2171044      0              0              0              0.91549968   
     69000   0.78777397     0.92989398    -4.1851788     -0.99571915     1.7023036      1.9816042      2.1617051      0.96360161     0.18951903    -0.14587501    -0.24706522     6.1848582      6.1848582      6.1848582      0              0              0              0.92989398   
     70000   0.80899408     0.92977337    -4.3969197     -2.5638912      0.52879161     1.265616      -0.13629848     0.45705733    -0.052129862   -0.12275226     0.0010315207   6.1851256      6.1851256      6.1851256      0              0              0              0.92977337   
     71000   0.75983809     0.92594148    -4.3587569     -2.3234397      0.75864819     1.0746249      0.16693698     1.0343827     -0.78524268    -0.10498702     0.4050664      6.193646       6.193646       6.193646       0              0              0              0.92594148   
     72000   0.81575884     0.94474346    -4.522319      -2.5208533      0.67329769     0.65997442    -0.0026972002   1.3626159      0.16920191     0.084021453    0.27757732     6.1522824      6.1522824      6.1522824      0              0              0              0.94474346   
     73000   0.90965532     0.94118886    -4.5107019     -1.8630417      1.1037576      0.66494499     1.7876399      0.85868785     0.49970312    -0.25079277     0.47809618     6.1600178      6.1600178      6.1600178      0              0              0              0.94118886   
     74000   0.77302006     0.96823003    -4.557339      -1.2781028      1.8708878      1.600686       1.869701       2.1422764      0.21752496    -0.11222183    -0.024116557    6.1021289      6.1021289      6.1021289      0              0              0              0.96823003   
     75000   0.7630642      0.96009802    -4.5358859     -2.464016       0.81433473     0.94386126    -0.25151686     1.7506598     -0.53502646     0.15211247    -0.74960279     6.1193088      6.1193088      6.1193088      0              0              0              0.96009802   
     76000   0.69045776     0.93440254    -4.3606706     -2.9407464      0.33079209     0.63306522     0.27080299     0.088508055   -0.019914108    0.13245533     0.34191932     6.1748947      6.1748947      6.1748947      0              0              0              0.93440254   
     77000   0.70992727     0.95312994    -4.5262716     -2.0858263      1.1965064      1.0326421      1.4401262      1.1167508     -0.11446612     0.24294132    -0.15522292     6.1341848      6.1341848      6.1341848      0              0              0              0.95312994   
     78000   0.66095462     0.94059862    -4.6366695     -3.2658631      0.32863801     0.41770131     0.45449315     0.11371956     0.12323212     0.0064216471   0.093665849    6.161306       6.161306       6.161306       0              0              0              0.94059862   
     79000   0.72675515     0.96651778    -4.6216933     -1.4914169      1.7973667      1.7240732      1.6340963      2.0339305     -0.046831442    0.18431584    -0.26459269     6.1057302      6.1057302      6.1057302      0              0              0              0.96651778   
     80000   0.70773122     0.95563104    -4.539532      -2.603597       0.76419743     1.0887895      1.1053622      0.09844058     0.30617109    -0.40288741    -0.1618224      6.1288286      6.1288286      6.1288286      0              0              0              0.95563104   
     81000   0.71223603     0.95560339    -4.7047268     -3.0268893      0.53411735     0.70289365     0.4591676      0.4402908      0.11636274     0.31584609    -0.40795861     6.1288877      6.1288877      6.1288877      0              0              0              0.95560339   
     82000   0.7308425      0.95248773    -4.656484      -2.8067485      0.65717589     0.062678709    0.84980697     1.059042       0.27990558     0.72389642    -0.30233944     6.1355631      6.1355631      6.1355631      0              0              0              0.95248773   
     83000   0.71045814     0.97796929    -4.7948664     -2.4685437      1.1255217      0.819741       1.2737259      1.2830982     -0.46108832    -0.083660504    0.079277998    6.081805       6.081805       6.081805       0              0              0              0.97796929   
     84000   0.71148591     0.97480873    -4.6839913     -2.2811606      1.1883255      1.0021177      1.0547174      1.5081415      0.18729497    -0.0068538952   0.52386494     6.0883707      6.0883707      6.0883707      0              0              0              0.97480873   
     85000   0.65682844     0.96713324    -4.7758077     -3.7294892      0.058029816   -0.96754644     0.96211701     0.17951887     0.096428378    0.13077154     0.28088507     6.1044348      6.1044348      6.1044348      0              0              0              0.96713324   
     86000   0.69487467     0.95358199    -4.6202132     -2.7552116      0.71770143     0.20323849     0.99031244     0.95955336     0.049314865   -0.30446752     0.21732914     6.1332153      6.1332153      6.1332153      0              0              0              0.95358199   
     87000   0.61860343     0.98283775    -4.8245482     -2.2711072      1.4565436      0.84412679     2.6604824      0.86502146    -0.64234074    -0.0026700777   0.58336461     6.0717463      6.0717463      6.0717463      0              0              0              0.98283775   
     88000   0.6405679      0.9625636     -4.7645406     -3.2536199      0.48554607    -0.019863474    0.89117209     0.5853296     -0.11444756     0.18221957     0.22498333     6.1140795      6.1140795      6.1140795      0              0              0              0.9625636    
     89000   0.62495062     0.9887599     -4.8685306     -2.8449412      0.98053578     0.82864862     0.90388957     1.2090692     -0.41759131     0.38602778    -0.1584383      6.0595998      6.0595998      6.0595998      0              0              0              0.9887599    
     90000   0.5372998      0.9864968     -4.8984561     -2.4515214      1.4752743      0.92104283     2.2339014      1.2708786     -0.28882793     0.34168702     0.23817483     6.06423        6.06423        6.06423        0              0              0              0.9864968    
     91000   0.52448494     0.97418643    -4.8263598     -3.6051997      0.38822777     0.18234825     0.72892499     0.25341006    -0.29277051     0.20681459    -0.2050992      6.0896669      6.0896669      6.0896669      0              0              0              0.97418643   
     92000   0.56014844     1.0097081     -4.9134221     -1.9836437      1.9218938      2.1213819      1.7601868      1.8841127     -0.17978344     0.052222155    0.40139887     6.0174009      6.0174009      6.0174009      0              0              0              1.0097081    
     93000   0.6348437      0.98125871    -4.8742947     -2.9068348      0.90985494     0.6396145      0.94405671     1.1458936     -0.20471587     0.4113929      0.26362192     6.0750014      6.0750014      6.0750014      0              0              0              0.98125871   
     94000   0.53787088     0.98899914    -4.9807938     -2.6851877      1.3421922      0.84221984     1.9476353      1.2367214     -0.068004301    0.20118509    -0.38214888     6.0591112      6.0591112      6.0591112      0              0              0              0.98899914   
     95000   0.52722244     0.99680668    -4.8981664     -2.8064174      1.182457       0.94284322     1.2646931      1.3398346     -0.050789461    0.69726938    -0.084090444    6.0432503      6.0432503      6.0432503      0              0              0              0.99680668   
     96000   0.51265422     0.99142757    -4.9699044     -3.3438237      0.77596716    -0.30793086     1.2333963      1.402436       0.29217579     0.24252511     0.75076828     6.05416        6.05416        6.05416        0              0              0              0.99142757   
     97000   0.57257548     0.99996087    -5.0596363     -3.1263278      0.98063401     0.30185686     1.2587183      1.3813269      0.52822483    -0.029033731    0.23091877     6.0368895      6.0368895      6.0368895      0              0              0              0.99996087   
     98000   0.55850937     0.99687577    -5.0409398     -3.3972483      0.73416842    -0.022994093    0.52237502     1.7031243     -0.023518782    0.48557919    -0.086460412    6.0431107      6.0431107      6.0431107      0              0              0              0.99687577   
     99000   0.46681641     0.99690459    -4.9988268     -3.0203888      1.1615883      1.2361142      1.4792915      0.76935912    -0.15361337    -0.25531243    -0.31439549     6.0430524      6.0430524      6.0430524      0              0              0              0.99690459   
    100000   0.42069151     0.99164477    -5.0536845     -3.7704542      0.59079332    -0.55540309     1.3356504      0.99213269     0.14448795     0.22897494    -0.44802574     6.053718       6.053718       6.053718       0              0              0              0.99164477   
    101000   0.47563253     1.0063015     -5.0795133     -2.8362724      1.4027471      1.0743662      2.2943843      0.83949062     0.46382834     0.25825877    -0.27905036     6.0241835      6.0241835      6.0241835      0              0              0              1.0063015    
    102000   0.5563662      1.0032219     -5.1155671     -3.4841463      0.73056837     0.28627457     1.2745677      0.6308628      0.34703012     0.12872126     0.45562368     6.0303412      6.0303412      6.0303412      0              0              0              1.0032219    
    103000   0.47523273     0.99970275    -5.0922028     -3.1070595      1.1595265      1.0154246      1.1214638      1.3416912      0.23727197     0.2788877      0.098143967    6.037409       6.037409       6.037409       0              0              0              0.99970275   
    104000   0.46715484     0.99934324    -5.1312612     -3.8320498      0.5468977      0.64023689     0.47067039     0.52978582     0.5687111      0.17141692     0.19856999     6.0381329      6.0381329      6.0381329      0              0              0              0.99934324   
    105000   0.38420009     1.0156923     -5.1645959     -3.0142925      1.4560271      0.75497415     1.3203966      2.2927104      0.49704163    -0.024134279    0.12968432     6.00556        6.00556        6.00556        0              0              0              1.0156923    
    106000   0.44540908     1.0007812     -5.1304687     -3.9397422      0.47851306     0.1897104      0.010150153    1.2356786      0.20492866     0.16072162     0.13867128     6.0352396      6.0352396      6.0352396      0              0              0              1.0007812    
    107000   0.44898704     1.01324       -5.2344615     -3.3580211      1.1111809      0.4298845      1.2182282      1.68543        0.25452098    -0.041620477    0.18711663     6.0104011      6.0104011      6.0104011      0              0              0              1.01324      
    108000   0.44195902     1.0021263     -5.1718199     -3.6121416      0.81997105     0.33036455     1.0701326      1.059416       0.24876101     0.36458704     0.46514016     6.0325382      6.0325382      6.0325382      0              0              0              1.0021263    
    109000   0.41014965     1.020145      -5.2942711     -3.4378577      1.1539371      0.34693418     1.917881       1.196996      -0.16187024     0.45875355    -0.040724407    5.9968096      5.9968096      5.9968096      0              0              0              1.020145     
    110000   0.41585238     1.0154381     -5.2736645     -3.6237785      0.95010514     0.11491013     1.555557       1.1798483      0.15232238    -0.20204544    -0.19535288     6.006061       6.006061       6.006061       0              0              0              1.0154381    
    111000   0.41365333     1.0091528     -5.2697865     -4.2820995      0.33972612    -0.50024696     1.2326729      0.28675242     0.31727782     0.35167472    -0.10517941     6.0185044      6.0185044      6.0185044      0              0              0              1.0091528    
    112000   0.38056589     1.0234102     -5.2917065     -3.524134       1.1160548      0.22896401     1.6710879      1.4481126     -0.38500775    -0.25331473    -0.015459471    5.9904251      5.9904251      5.9904251      0              0              0              1.0234102    
    113000   0.39106717     1.0219425     -5.3161312     -3.9602891      0.71737982    -0.079811862    1.2937585      0.9381928      0.36244166     0.33418419    -0.28090918     5.9932915      5.9932915      5.9932915      0              0              0              1.0219425    
    114000   0.34111048     1.0168502     -5.3205627     -4.0230387      0.72881968     0.22647959     1.2474066      0.71257286    -0.093766531    0.26140862    -0.18517612     6.0032795      6.0032795      6.0032795      0              0              0              1.0168502    
    115000   0.34058629     1.0235547     -5.3838429     -4.057763       0.76092449     0.041466792    1.3119189      0.92938781     0.24680418    -0.35873839    -0.12904374     5.9901432      5.9901432      5.9901432      0              0              0              1.0235547    
    116000   0.36481443     1.0203788     -5.3578823     -3.6356613      1.0924875      0.5201238      1.3666197      1.3907189      0.31796401     0.089332046    0.08550775     5.9963515      5.9963515      5.9963515      0              0              0              1.0203788    
    117000   0.37003509     1.0293684     -5.4112698     -3.6366853      1.1438221      0.83686331     1.3941984      1.2004047     -0.027986816    0.33765904    -0.28063142     5.9788448      5.9788448      5.9788448      0              0              0              1.0293684    
    118000   0.33048019     1.0252565     -5.396291      -3.9143472      0.92152123     0.44953543     1.4504609      0.86456733     0.16051026     0.11488662    -0.16529931     5.9868271      5.9868271      5.9868271      0              0              0              1.0252565    
    119000   0.30066447     1.0191789     -5.380459      -4.205867       0.6725194      0.077192561    1.2014802      0.7388854      0.04500678     0.095430506   -0.43738111     5.9987039      5.9987039      5.9987039      0              0              0              1.0191789    
    120000   0.27709395     1.0346335     -5.4397991     -3.5973309      1.3439941      0.50788479     1.9493273      1.5747702      0.17516379     0.50303079    -0.20287013     5.9686857      5.9686857      5.9686857      0              0              0              1.0346335    
    121000   0.2726927      1.0290045     -5.4100135     -3.7750981      1.1486698      0.53018772     1.5071703      1.4086514      0.021291911    0.39095512    -0.038024944    5.9795495      5.9795495      5.9795495      0              0              0              1.0290045    
    122000   0.27787793     1.0236396     -5.3839653     -4.202928       0.71310868    -0.084678788    1.5246837      0.69932118     0.10825165     0.16046213     0.06569966     5.9899777      5.9899777      5.9899777      0              0              0              1.0236396    
    123000   0.28507042     1.0417349     -5.4885287     -3.3681206      1.6051624      1.1207789      2.185722       1.5089864      0.0859777      0.28545877    -0.36564674     5.9550922      5.9550922      5.9550922      0              0              0              1.0417349    
    124000   0.26995228     1.0329497     -5.5202307     -4.3297408      0.73957896    -0.08880371     1.3623919      0.94514872     0.22447407     0.13508253     0.047539836    5.9719271      5.9719271      5.9719271      0              0              0              1.0329497    
    125000   0.25769358     1.0302339     -5.5222141     -4.3808264      0.70878227    -0.24313537     1.2467769      1.1227053      0.12638359     0.17888664    -0.082359806    5.9771701      5.9771701      5.9771701      0              0              0              1.0302339    
    126000   0.218376       1.0367586     -5.5197795     -3.9312951      1.189971       0.71300984     1.9204037      0.93649944     0.21405924     0.4957483     -0.17644777     5.9646049      5.9646049      5.9646049      0              0              0              1.0367586    
    127000   0.2423314      1.036431      -5.5036379     -3.8433205      1.2235896      0.78647723     1.6294141      1.2548775      0.16231106     0.023052705   -0.20532717     5.9652332      5.9652332      5.9652332      0              0              0              1.036431     
    128000   0.21135847     1.0388204     -5.5462663     -3.8522215      1.3019179      1.1455265      1.9544715      0.80575581     0.28198536     0.16691489    -0.21824679     5.9606562      5.9606562      5.9606562      0              0              0              1.0388204    
    129000   0.20910987     1.0331857     -5.5543749     -4.3606937      0.82803702     0.19509506     1.4314828      0.85753319    -0.14704346     0.14169455    -0.28821432     5.9714724      5.9714724      5.9714724      0              0              0              1.0331857    
    130000   0.19518078     1.0480582     -5.5893252     -3.943949       1.2901299      0.3102006      1.9883193      1.57187        0.072906095    0.25577403    -0.11857086     5.9430916      5.9430916      5.9430916      0              0              0              1.0480582    
    131000   0.21259166     1.037398      -5.5774424     -4.3380808      0.86959277     0.025653387    1.3250786      1.2580463      0.00064474628  0.33519341    -0.25347673     5.9633792      5.9633792      5.9633792      0              0              0              1.037398     
    132000   0.16559073     1.0379923     -5.5972075     -4.3773511      0.91787985     0.56992293     1.275511       0.90820558     0.069285539    0.32338904    -0.37251218     5.9622409      5.9622409      5.9622409      0              0              0              1.0379923    
    133000   0.18257089     1.0503363     -5.6115442     -3.6973808      1.5675566      0.81571571     2.3354882      1.5514658     -0.16377859     0.26116735    -0.30396859     5.9387918      5.9387918      5.9387918      0              0              0              1.0503363    
    134000   0.15024917     1.0441073     -5.627034      -4.2566187      1.0879299      0.5788761      1.7212652      0.96364835     0.07452993     0.03002629    -0.39446676     5.9505783      5.9505783      5.9505783      0              0              0              1.0441073    
    135000   0.15297202     1.0395146     -5.6521447     -4.6958224      0.68798058     0.073291762    1.0424138      0.94823618     0.044565809   -0.32139751    -0.09687264     5.959329       5.959329       5.959329       0              0              0              1.0395146    
    136000   0.14165831     1.0476643     -5.6576915     -4.4358167      0.9623747      0.40582868     1.5461646      0.93513084     0.37318153     0.32130375    -0.091420773    5.9438363      5.9438363      5.9438363      0              0              0              1.0476643    
    137000   0.12010825     1.0504185     -5.6867069     -4.3720952      1.0841753      0.46792507     1.4885564      1.2960444      0.12574889     0.28993159    -0.35082135     5.938637       5.938637       5.938637       0              0              0              1.0504185    
    138000   0.12709393     1.0471146     -5.690217      -4.6114839      0.84630217     0.15767314     1.6542839      0.72694948     0.037703258    0.23776344    -0.071320358    5.9448764      5.9448764      5.9448764      0              0              0              1.0471146    
    139000   0.1106561      1.0524657     -5.7049399     -4.3321633      1.1554374      0.40134958     1.6718937      1.393069       0.049526286    0.46654558    -0.27321114     5.9347839      5.9347839      5.9347839      0              0              0              1.0524657    
    140000   0.091813202    1.0535285     -5.736531      -4.655751       0.9038784     -0.00493716     1.6159108      1.1006616      0.073218934    0.30295776    -0.32582791     5.9327876      5.9327876      5.9327876      0              0              0              1.0535285    
Loop time of 13.9408 on 12 procs for 140000 steps with 200 atoms

Performance: 1735332.223 tau/day, 10042.432 timesteps/s
84.2% CPU use with 12 MPI tasks x 1 OpenMP threads

MPI task timing breakdown:
Section |  min time  |  avg time  |  max time  |%varavg| %total
---------------------------------------------------------------
Pair    | 3.0121     | 3.1737     | 3.3325     |   4.7 | 22.77
Bond    | 0.057408   | 0.066392   | 0.075492   |   2.4 |  0.48
Neigh   | 0.01969    | 0.019844   | 0.02006    |   0.1 |  0.14
Comm    | 8.3269     | 8.4197     | 8.5442     |   2.5 | 60.40
Output  | 0.014557   | 0.014651   | 0.015495   |   0.2 |  0.11
Modify  | 1.5017     | 1.5352     | 1.5606     |   1.4 | 11.01
Other   |            | 0.7113     |            |       |  5.10

Nlocal:        16.6667 ave          19 max          14 min
Histogram: 1 0 0 0 4 0 5 0 1 1
Nghost:        2324.33 ave        2340 max        2309 min
Histogram: 1 3 0 0 1 2 2 1 0 2
Neighs:        5264.58 ave        5838 max        4531 min
Histogram: 1 0 1 1 1 2 4 0 1 1

Total # of neighbors = 63175
Ave neighs/atom = 315.875
Ave special neighs/atom = 10.28
Neighbor list builds = 95
Dangerous builds = 0
System init for write_data ...
Generated 0 of 1 mixed pair_coeff terms from geometric mixing rule
WARNING: Proc sub-domain size < neighbor skin, could lead to lost atoms (src/domain.cpp:970)
WARNING: Not all mixed pair coeffs generated from mixing. Use write_data with 'pair ij' option to store all pair coeffs. (src/write_data.cpp:309)
Total wall time: 0:00:13
