Generated by ZY code

200 atoms
2 atom types
220 bonds
2 bond types
0 angles
0 angle types
0 dihedrals
0 dihedral types
0 impropers
0 improper types

90.4706999999999937 110.1682484269610143 xlo xhi
96.9979000000000013 102.9306875750609578 ylo yhi
97.0267999999999944 102.9595875750609508 zlo zhi

Masses

1 1.000
2 1.500

Pair Coeffs

1 1.000000 1.000000
2 1.000000 1.000000

Bond Coeffs

1 100.000000 1.200000
2 100.000000 1.200000

Atoms # full

1 1 1 0.000000 107.942000 97.069900 100.561000 -1 -1 0
2 1 1 0.000000 108.776000 102.653000 99.769600 -1 -1 0
3 2 1 0.000000 95.063800 102.464000 99.811900 3 -1 2
4 2 1 0.000000 93.734300 102.571000 99.607000 2 0 2
5 3 1 0.000000 91.901200 101.855000 98.377500 -1 0 0
6 3 1 0.000000 92.861900 101.571000 99.052500 -1 -1 0
7 4 1 0.000000 100.089000 98.383900 99.088600 -1 -1 1
8 4 1 0.000000 100.129000 99.652800 98.970400 -1 -1 1
9 5 1 0.000000 103.902000 101.621000 100.570000 -1 -2 1
10 5 1 0.000000 105.086000 101.366000 100.940000 -1 -2 2
11 6 1 0.000000 104.725000 101.945000 98.147400 -1 0 1
12 6 1 0.000000 105.902000 102.146000 97.777700 -1 1 1
13 7 1 0.000000 99.018200 100.025000 99.651400 -1 1 1
14 7 1 0.000000 99.323300 101.114000 100.084000 -1 1 1
15 8 1 0.000000 102.646000 101.501000 98.784200 -2 -1 0
16 8 1 0.000000 101.479000 101.148000 99.171800 -2 -1 0
17 9 1 0.000000 94.258900 98.463000 102.233000 1 -1 -1
18 9 1 0.000000 95.298200 98.983400 102.636000 1 0 -1
19 10 1 0.000000 90.904400 102.054000 101.115000 0 0 0
20 10 1 0.000000 92.141100 102.161000 100.964000 1 0 0
21 11 1 0.000000 108.375000 98.940000 101.616000 -1 -1 0
22 11 1 0.000000 108.294000 100.150000 101.512000 -1 -1 0
23 12 1 0.000000 99.902400 98.254400 100.177000 0 1 1
24 12 1 0.000000 99.970900 99.474600 100.047000 0 1 1
25 13 1 0.000000 91.356600 102.816000 98.487200 1 1 1
26 13 1 0.000000 109.758000 102.772000 98.262800 0 2 1
27 14 1 0.000000 109.635000 101.206000 100.341000 -1 1 2
28 14 1 0.000000 91.135400 101.475000 100.170000 -1 1 2
29 15 1 0.000000 95.685800 101.198000 101.789000 1 0 -1
30 15 1 0.000000 95.491800 100.167000 102.398000 1 0 -1
31 16 1 0.000000 95.370300 98.210600 101.891000 -1 1 -2
32 16 1 0.000000 95.934100 97.120800 101.768000 -1 1 -2
33 17 1 0.000000 94.908200 101.397000 99.634900 -1 0 1
34 17 1 0.000000 93.618700 101.541000 99.871700 -3 2 1
35 18 1 0.000000 109.768000 102.294000 100.230000 -1 0 -1
36 18 1 0.000000 91.299100 102.550000 100.206000 -1 0 -1
37 19 1 0.000000 101.971000 101.476000 101.589000 -3 1 2
38 19 1 0.000000 101.144000 101.509000 102.473000 -3 1 2
39 20 1 0.000000 107.247000 100.924000 99.201100 0 1 -1
40 20 1 0.000000 108.279000 101.364000 99.586200 0 1 -1
41 21 1 0.000000 106.392000 102.796000 101.992000 -3 3 -2
42 21 1 0.000000 107.571000 102.876000 102.139000 -3 3 -1
43 22 1 0.000000 95.625700 101.679000 100.414000 -1 -1 1
44 22 1 0.000000 94.427300 101.902000 100.472000 -1 -1 1
45 23 1 0.000000 103.459000 101.527000 101.561000 -3 0 1
46 23 1 0.000000 104.606000 101.653000 101.960000 -3 0 1
47 24 1 0.000000 108.444000 97.767700 99.921600 2 0 0
48 24 1 0.000000 109.593000 97.453000 100.031000 0 1 0
49 25 1 0.000000 91.922900 97.469400 102.092000 1 -1 1
50 25 1 0.000000 90.810400 102.817000 101.945000 1 -1 0
51 26 1 0.000000 97.275400 101.523000 98.571400 0 -2 -1
52 26 1 0.000000 98.469100 101.423000 98.244600 0 -2 -1
53 27 1 0.000000 91.580700 103.026000 101.150000 0 -1 -1
54 27 1 0.000000 92.345300 96.997900 100.227000 0 -1 -1
55 28 1 0.000000 96.122200 100.814000 100.878000 -1 -1 0
56 28 1 0.000000 96.508200 100.224000 101.828000 0 -2 0
57 29 1 0.000000 108.376000 99.579400 100.549000 3 -1 0
58 29 1 0.000000 108.717000 98.411600 100.755000 2 1 0
59 30 1 0.000000 95.466700 100.147000 101.333000 1 -3 -2
60 30 1 0.000000 96.014100 99.184300 101.797000 1 -3 -2
61 31 1 0.000000 93.359100 97.410800 100.356000 0 0 0
62 31 1 0.000000 92.609300 97.181700 101.284000 0 0 0
63 32 1 0.000000 107.327000 101.091000 100.222000 2 1 -1
64 32 1 0.000000 106.154000 101.300000 99.885100 2 1 -1
65 33 1 0.000000 94.364700 102.974000 100.527000 0 -2 0
66 33 1 0.000000 95.509700 102.685000 100.738000 2 -3 0
67 34 1 0.000000 97.342400 100.100000 97.442100 0 1 -1
68 34 1 0.000000 98.366900 100.276000 98.124100 0 1 0
69 35 1 0.000000 107.499000 102.134000 100.148000 0 0 1
70 35 1 0.000000 106.574000 101.781000 100.840000 1 0 1
71 36 1 0.000000 100.732000 100.916000 100.768000 1 -1 1
72 36 1 0.000000 100.954000 99.838600 100.283000 1 -1 1
73 37 1 0.000000 109.406000 101.879000 102.449000 0 0 -1
74 37 1 0.000000 108.092000 101.990000 102.637000 0 0 0
75 38 1 0.000000 97.257700 102.468000 99.184300 0 0 0
76 38 1 0.000000 98.346500 102.929000 99.437100 0 0 0
77 39 1 0.000000 97.349300 101.242000 99.606700 1 -1 0
78 39 1 0.000000 98.541800 101.220000 99.246600 1 -1 0
79 40 1 0.000000 90.470700 102.452000 97.100700 -2 2 0
80 40 1 0.000000 90.770900 101.948000 98.143200 0 0 0
81 41 1 0.000000 99.234700 102.258000 99.947900 -2 0 -1
82 41 1 0.000000 97.815800 102.191000 100.011000 -2 0 -1
83 42 1 0.000000 101.004000 101.600000 98.147200 -1 -1 -1
84 42 1 0.000000 102.196000 101.712000 97.851200 -1 -1 -1
85 43 1 0.000000 99.935400 101.581000 99.388100 -1 1 0
86 43 1 0.000000 99.094300 102.256000 98.892700 -2 2 0
87 44 1 0.000000 94.938100 101.087000 100.979000 0 1 0
88 44 1 0.000000 93.729300 101.211000 100.890000 0 1 0
89 45 1 0.000000 103.382000 102.250000 99.616800 0 -1 -2
90 45 1 0.000000 102.031000 102.136000 99.624000 0 -1 -2
91 46 1 0.000000 90.484300 102.985000 100.924000 -1 0 0
92 46 1 0.000000 109.760000 98.160800 100.803000 -2 0 0
93 47 1 0.000000 91.342300 102.079000 99.248100 -2 2 1
94 47 1 0.000000 109.795000 102.101000 99.178100 -1 1 1
95 48 1 0.000000 90.736700 97.446600 97.662500 -1 2 2
96 48 1 0.000000 109.370000 97.839100 98.095600 -2 3 2
97 49 1 0.000000 99.932900 97.179800 100.310000 -1 -1 0
98 49 1 0.000000 100.734000 97.558400 99.524600 -1 -1 0
99 50 1 0.000000 109.339000 97.231500 97.208100 2 -2 0
100 50 1 0.000000 90.633600 97.742900 102.572000 0 0 -1
101 51 1 0.000000 90.633200 97.096000 99.298400 -1 1 1
102 51 1 0.000000 109.149000 97.360000 99.002000 0 0 1
103 52 1 0.000000 100.094000 101.766000 100.507000 0 -1 -1
104 52 1 0.000000 101.372000 101.708000 100.375000 0 -1 -1
105 53 1 0.000000 101.587000 97.117200 100.067000 -1 0 -1
106 53 1 0.000000 100.819000 97.867500 100.650000 -1 0 -1
107 54 1 0.000000 105.606000 102.105000 102.689000 -1 -1 -1
108 54 1 0.000000 104.461000 101.858000 97.123400 -1 -1 -1
109 55 1 0.000000 108.267000 102.517000 101.447000 -2 0 -1
110 55 1 0.000000 107.057000 102.696000 101.132000 -2 -1 -1
111 56 1 0.000000 107.792000 102.865000 97.240700 0 -1 0
112 56 1 0.000000 108.689000 102.837000 102.365000 0 -1 -1
113 57 1 0.000000 108.598000 101.418000 101.591000 -1 -2 -1
114 57 1 0.000000 107.423000 100.931000 101.688000 0 -3 -1
115 58 1 0.000000 99.152400 101.117000 97.445300 1 0 0
116 58 1 0.000000 98.914500 102.297000 97.729100 1 0 0
117 59 1 0.000000 91.505900 102.706000 102.841000 1 -1 0
118 59 1 0.000000 92.669100 102.818000 102.587000 1 -1 0
119 60 1 0.000000 95.539400 97.836700 100.910000 -1 0 1
120 60 1 0.000000 96.518000 97.056800 100.851000 -1 0 1
121 61 1 0.000000 91.584400 100.946000 101.662000 0 0 -1
122 61 1 0.000000 91.501600 99.735300 101.752000 -1 1 -1
123 62 1 0.000000 99.832800 101.274000 101.410000 0 -2 -1
124 62 1 0.000000 100.910000 101.865000 101.345000 -1 -1 -1
125 63 1 0.000000 96.597000 100.484000 99.921100 1 0 -1
126 63 1 0.000000 96.792300 101.535000 100.475000 1 0 -1
127 64 1 0.000000 106.505000 101.549000 98.567000 0 0 0
128 64 1 0.000000 107.519000 102.067000 99.060800 1 -1 0
129 65 1 0.000000 109.508000 97.425800 101.802000 -1 1 0
130 65 1 0.000000 90.879600 97.861600 101.441000 2 -2 0
131 66 1 0.000000 97.551000 102.015000 101.111000 -1 0 -1
132 66 1 0.000000 96.234700 102.048000 101.278000 -1 0 -1
133 67 1 0.000000 95.166300 99.077500 101.127000 0 1 1
134 67 1 0.000000 96.167000 99.665300 100.695000 0 1 1
135 68 1 0.000000 91.962800 98.099100 101.204000 0 -1 -1
136 68 1 0.000000 93.190400 98.181300 101.088000 0 -1 -1
137 69 1 0.000000 92.317000 101.942000 102.010000 1 0 0
138 69 1 0.000000 93.599900 102.044000 101.653000 0 0 0
139 70 1 0.000000 105.391000 101.190000 97.737300 0 -1 1
140 70 1 0.000000 105.688000 101.074000 102.454000 0 -2 1
141 71 1 0.000000 99.852400 102.393000 101.293000 1 -2 -2
142 71 1 0.000000 100.860000 102.741000 100.769000 2 -3 -2
143 72 1 0.000000 100.589000 100.600000 98.589600 -1 2 -1
144 72 1 0.000000 104.125000 101.521000 99.011800 -1 2 -1
145 73 1 0.000000 94.901100 97.230000 101.543000 1 0 1
146 73 1 0.000000 93.722700 97.206800 101.399000 1 0 1
147 74 1 0.000000 101.562000 102.558000 101.957000 -1 1 -1
148 74 1 0.000000 102.755000 102.450000 101.855000 -1 1 -1
149 75 1 0.000000 103.908000 102.579000 101.831000 -1 1 -1
150 75 1 0.000000 105.105000 102.641000 101.906000 -1 1 -1
151 76 1 0.000000 106.434000 102.355000 99.869900 -2 -1 -1
152 76 1 0.000000 105.335000 102.018000 100.130000 -1 -1 -1
153 77 1 0.000000 107.889000 102.024000 97.910200 0 0 -1
154 77 1 0.000000 109.007000 102.208000 97.495500 0 0 -1
155 78 1 0.000000 103.291000 102.437000 100.921000 -1 -2 0
156 78 1 0.000000 104.576000 102.424000 100.911000 -1 -2 0
157 79 1 0.000000 106.819000 101.839000 101.910000 0 -1 1
158 79 1 0.000000 107.707000 101.754000 101.102000 -1 0 1
159 80 1 0.000000 105.929000 102.459000 98.813300 0 -1 0
160 80 1 0.000000 107.139000 102.740000 98.327800 0 -1 0
161 81 2 0.000000 96.184300 101.430000 99.349800 1 -1 2
162 82 2 0.000000 96.383400 99.523800 102.836000 2 0 0
163 83 2 0.000000 92.335300 101.789000 99.988400 1 2 -1
164 84 2 0.000000 91.019300 101.830000 102.235000 0 -1 2
165 85 2 0.000000 95.392300 100.313000 100.140000 1 2 -3
166 86 2 0.000000 92.455300 102.605000 99.196300 2 1 2
167 87 2 0.000000 108.498000 100.808000 100.532000 -1 2 -1
168 88 2 0.000000 108.633000 101.969000 100.561000 -2 -1 -1
169 89 2 0.000000 96.401800 102.345000 99.962200 -1 1 1
170 90 2 0.000000 109.455000 102.317000 101.483000 0 -1 1
171 91 2 0.000000 102.625000 101.612000 100.604000 0 1 -1
172 92 2 0.000000 100.420000 100.595000 99.676600 0 -3 1
173 93 2 0.000000 108.708000 102.154000 98.781000 0 0 1
174 94 2 0.000000 108.983000 97.204500 100.845000 1 1 0
175 95 2 0.000000 105.384000 101.436000 98.952000 0 0 1
176 96 2 0.000000 91.053900 97.684600 100.261000 -1 -2 -1
177 97 2 0.000000 108.475000 102.958000 98.097300 0 1 1
178 98 2 0.000000 99.418000 100.574000 98.709100 0 1 2
179 99 2 0.000000 105.778000 101.840000 101.653000 0 2 3
180 100 2 0.000000 104.663000 102.473000 99.258800 0 4 0
181 101 2 0.000000 99.723000 101.654000 98.193900 -1 0 0
182 102 2 0.000000 99.888900 100.281000 100.750000 1 -3 0
183 103 2 0.000000 93.137400 97.886800 102.130000 0 2 0
184 104 2 0.000000 100.635000 102.329000 99.800600 1 0 -1
185 105 2 0.000000 103.473000 101.761000 97.907300 0 -1 1
186 106 2 0.000000 106.840000 102.117000 97.026800 -2 0 1
187 107 2 0.000000 100.875000 98.725600 99.813000 0 -1 0
188 108 2 0.000000 98.849000 101.853000 100.914000 1 0 1
189 109 2 0.000000 91.659600 97.963600 97.058800 -1 4 -2
190 110 2 0.000000 99.464300 97.381800 99.371800 1 0 0
191 111 2 0.000000 94.380500 98.136600 101.219000 3 1 -1
192 112 2 0.000000 105.805000 102.638000 100.929000 -4 0 0
193 113 2 0.000000 102.001000 102.382000 100.925000 -1 2 0
194 114 2 0.000000 93.300900 102.306000 100.612000 0 -1 0
195 115 2 0.000000 100.387000 101.108000 97.405400 0 2 0
196 116 2 0.000000 91.421200 98.593600 102.150000 -2 1 0
197 117 2 0.000000 94.931600 102.036000 101.417000 -1 -3 -3
198 118 2 0.000000 98.081800 102.350000 98.566000 1 0 1
199 119 2 0.000000 106.225000 100.960000 101.369000 -2 1 0
200 120 2 0.000000 108.346000 97.762900 101.593000 0 1 0

Velocities 

139 0.551201 0.091183 -0.309784
25 -0.235395 0.278005 0.249119
27 -0.629085 -0.066512 -0.134619
125 0.173978 -0.034583 0.116666
28 0.139101 -0.223492 0.343473
91 0.107050 0.093237 0.416890
128 -0.088097 0.301844 0.191848
96 0.073142 -0.062747 -0.311723
4 -0.282020 -0.480385 -0.669453
26 -0.184788 -0.150706 0.263753
95 0.119027 0.459692 0.194406
169 0.246011 -0.381422 -0.314290
166 0.198290 0.234802 0.004763
14 0.121039 0.083937 0.480719
74 -0.176686 0.398380 0.173274
167 0.152778 -0.246243 0.010857
61 -0.155847 -0.229130 -0.584901
67 -0.462848 -0.236614 0.082153
58 -0.114019 0.210438 0.198966
55 0.378085 -0.284113 0.532360
135 -0.137552 0.246764 0.213868
82 -0.160078 0.014779 -0.032437
66 -0.057405 -0.174159 -0.327370
56 0.014902 0.158946 -0.214076
137 0.386335 0.039724 0.297490
118 -0.519595 -0.169225 -0.227327
62 0.518419 0.310439 0.321741
183 -0.330137 0.139107 0.099777
81 0.577658 -0.155993 0.174885
136 0.071804 0.060478 0.049579
18 0.098687 -0.549337 -0.431972
117 0.078876 0.271917 0.004057
73 -0.071471 0.166634 -0.253730
150 0.108244 0.260561 0.656657
102 0.189821 -0.406727 -0.127579
173 -0.021633 -0.217613 0.233300
94 -0.040549 0.388850 -0.524878
80 -0.209736 -0.308654 0.140761
127 0.081172 0.113015 0.429960
176 -0.167009 -0.325623 -0.555200
154 -0.090424 0.416827 0.393238
163 -0.119382 0.033324 -0.010580
92 -0.783613 0.119674 0.371175
126 -0.090599 0.011224 -0.100063
51 -0.305553 0.004148 -0.395580
93 -0.103538 -0.041903 0.181430
101 0.200261 0.716790 -0.121002
79 0.304760 -0.091305 -0.661565
153 -0.205115 0.154472 0.214407
38 -0.271786 -0.260607 -0.170854
30 -0.011440 0.045131 0.008414
197 -0.096695 0.014512 0.033091
121 -0.375431 -0.000697 -0.323869
65 -0.166224 -0.267139 -0.016076
138 -0.474879 -0.202068 0.153742
87 -0.057956 -0.051381 -0.243726
194 0.075620 -0.218268 0.083846
20 -0.217724 0.150559 -0.135561
164 0.077204 0.313357 -0.069754
165 0.117903 -0.174855 0.380075
29 -0.258005 -0.107676 -0.264125
88 0.159384 0.794500 -0.540393
162 0.313082 0.455667 -0.383558
97 0.081594 0.217113 -0.072953
122 -0.586099 0.041671 0.144008
33 0.139163 -0.290060 -0.139349
34 -0.462671 -0.251858 0.299739
7 -0.073610 0.166078 0.420473
23 -0.163748 0.385603 -0.153854
178 -0.220462 0.033905 0.013378
146 -0.345804 0.169392 0.396732
182 -0.360510 -0.099532 0.248517
75 0.040076 -0.078904 -0.302747
3 -0.387229 -0.006945 -0.677267
8 -0.043972 -0.006088 -0.268247
111 -0.226615 -0.071962 0.176668
13 -0.178941 -0.275434 -0.187141
5 -0.127300 0.051296 0.346713
76 0.781482 0.595023 0.215214
78 -0.034551 0.232925 0.391237
187 0.127816 0.397024 0.239248
24 0.200667 0.359961 -0.169997
172 -0.233942 -0.436595 -0.456980
189 0.127722 0.096915 0.389041
145 0.306391 0.022888 0.028675
143 0.052871 -0.093032 0.637995
68 0.052887 0.059076 -0.702409
31 -0.307584 -0.481720 0.286204
90 -0.022784 -0.069170 -0.193497
70 0.050962 0.147523 0.377665
191 0.061137 0.180321 0.091654
105 -0.069694 -0.105945 0.119577
120 0.396779 -0.350984 -0.450806
149 0.842433 0.228891 -0.018248
184 0.076609 -0.025349 0.524426
133 0.408558 -0.040760 0.427576
119 -0.241668 0.183640 0.344949
32 0.558195 0.153563 -0.123518
112 0.291653 0.090667 -0.231091
129 -0.177100 -0.002459 -0.311391
89 0.613338 -0.215692 0.336324
71 -0.371347 -0.142577 -0.291830
181 -0.310304 0.102591 0.170821
52 -0.157981 0.094038 0.045175
37 -0.284471 0.143830 0.092639
46 -0.031586 0.039539 -0.304455
142 -0.217276 0.794962 0.122984
6 -0.091446 -0.042422 0.359174
115 0.103496 0.118273 -0.121136
116 0.019348 0.069456 -0.399506
77 0.306780 -0.000895 0.152201
85 0.368962 0.128541 -0.412988
190 0.022290 -0.069299 -0.064565
198 -0.350920 -0.609302 -0.497267
86 -0.376393 0.281396 -0.009101
45 -0.320146 0.215519 0.258658
161 0.136466 -0.218782 -0.397862
156 -0.306176 0.165110 0.228129
192 0.124692 0.119457 0.030344
141 -0.039776 -0.503905 0.051156
110 -0.136977 -0.447004 -0.375118
131 0.249296 -0.422309 -0.136058
132 0.136412 0.121007 0.166824
171 0.101423 0.147514 0.016405
44 -0.316796 -0.467975 0.133842
188 -0.071923 -0.039128 0.221123
195 0.074897 0.026144 -0.034672
193 -0.296824 0.138134 -0.383215
155 -0.085898 -0.069067 0.287188
158 0.586562 0.256940 -0.001734
69 -0.153605 0.266983 0.194670
134 0.305638 -0.730070 0.063505
9 -0.269443 -0.139444 0.333333
98 -0.049256 -0.216514 0.356088
43 -0.050684 -0.011223 0.265176
12 -0.024315 0.818969 0.348007
144 0.782984 -0.739355 0.084038
160 -0.512669 0.135481 -0.216357
99 0.024804 -0.107038 0.371771
174 0.399845 -0.128411 -0.305977
63 -0.347591 -0.046933 -0.573460
177 -0.331880 -0.047979 -0.383010
47 0.041730 -0.080085 -0.261102
159 0.436907 -0.185162 -0.104609
175 -0.246869 0.239615 -0.362040
186 -0.349089 -0.343172 0.116697
64 -0.595951 -0.235473 0.120107
57 0.366571 -0.710267 -0.239408
42 0.366037 -0.120580 -0.499465
49 0.425093 -0.009406 0.377975
36 -0.094870 0.103506 -0.015188
148 -0.054041 -0.075152 -0.227510
21 -0.021122 -0.044128 0.128053
50 0.138789 -0.120118 0.236167
60 -0.039070 0.452038 -0.202016
200 0.053255 -0.089056 0.181416
17 0.350329 0.431728 0.255878
109 0.217302 -0.467731 0.175053
196 -0.228445 0.142420 0.163731
22 0.143064 -0.615899 0.136028
147 -0.225693 -0.159328 -0.469631
41 -0.574627 -0.152595 0.424764
152 -0.366569 -0.111914 0.385429
106 0.003004 0.116194 0.004010
72 0.550718 -0.199657 -0.227764
100 0.155224 -0.420810 -0.051216
15 0.185931 0.089424 0.305738
140 0.020471 -0.185196 -0.193274
83 0.282684 -0.188536 0.202157
185 -0.001509 0.617770 0.065772
11 0.370895 -0.627185 -0.005553
107 0.278148 0.561411 -0.160378
84 0.223899 0.281426 -0.302367
10 0.027584 -0.228721 0.164192
53 0.767020 0.206630 0.222416
54 0.279703 -0.269571 -0.086471
48 -0.324081 -0.313588 0.003126
16 0.485864 0.181126 -0.047095
1 -0.104468 0.122920 -0.487083
114 -0.136212 -0.081724 -0.116509
124 -0.019832 -0.068718 -0.073853
113 -0.261642 0.309989 0.158970
108 -0.601040 -0.038275 0.172880
19 0.292232 0.238514 -0.253753
151 0.374609 -0.263731 -0.091445
168 0.063404 -0.562985 -0.167878
157 0.020233 0.091508 0.181063
179 0.027631 0.281612 0.495976
199 -0.184837 -0.334838 0.245443
35 0.648424 -0.253047 0.388225
123 -0.045504 0.263956 -0.264360
103 -0.104902 0.346102 -0.393031
170 -0.404444 0.039897 -0.199440
39 0.275118 0.003267 -0.374140
2 0.423976 0.281458 0.332414
130 -0.068381 0.214929 0.045656
59 0.264931 -0.229610 -0.231902
104 0.158973 0.166337 0.201115
180 0.217978 0.395121 0.289315
40 -0.264928 0.488004 -0.638810

Bonds

1 1 139 140
2 1 25 26
3 1 27 28
4 1 125 126
5 1 91 92
6 1 95 96
7 2 169 3
8 2 169 66
9 2 169 75
10 2 169 82
11 2 166 5
12 2 166 93
13 2 166 4
14 2 166 25
15 2 167 22
16 2 167 27
17 2 167 57
18 2 167 63
19 1 61 62
20 1 67 68
21 1 55 56
22 1 135 136
23 1 137 138
24 2 183 17
25 2 183 49
26 2 183 62
27 2 183 118
28 1 81 82
29 1 117 118
30 1 73 74
31 2 173 94
32 2 173 102
33 2 173 128
34 2 173 153
35 1 127 128
36 2 176 48
37 2 176 53
38 2 176 92
39 2 176 101
40 2 163 28
41 2 163 34
42 2 163 36
43 2 163 54
44 1 51 52
45 1 93 94
46 1 101 102
47 1 79 80
48 1 153 154
49 2 197 29
51 2 197 132
52 2 197 138
53 1 121 122
54 1 65 66
55 1 87 88
56 2 194 20
57 2 194 44
58 2 194 88
59 2 194 65
60 2 164 73
61 2 164 137
62 2 164 121
63 2 165 55
64 2 165 59
65 2 165 87
66 2 165 125
67 1 29 30
68 2 162 18
69 2 162 30
70 2 162 56
71 2 162 67
72 1 97 98
73 1 33 34
74 1 7 8
75 1 23 24
76 2 178 13
77 2 178 68
78 2 178 78
79 2 178 143
80 2 182 14
81 1 75 76
82 1 3 4
83 1 111 112
84 1 13 14
85 1 5 6
86 2 187 72
87 2 187 106
88 2 172 8
89 2 172 16
90 2 172 24
91 2 172 71
92 2 189 95
93 2 189 117
94 1 145 146
96 1 31 32
97 2 191 119
98 2 191 133
99 2 191 136
100 2 191 31
101 1 105 106
102 1 149 150
103 2 184 81
104 2 184 90
105 2 184 98
106 2 184 105
107 1 133 134
108 1 119 120
109 1 129 130
110 1 89 90
111 1 71 72
113 2 181 52
114 2 181 83
115 2 181 85
116 1 37 38
117 1 115 116
118 1 77 78
119 1 85 86
120 2 190 7
121 2 190 76
122 2 190 23
123 2 190 86
124 2 198 116
125 1 45 46
126 2 161 33
127 2 161 43
128 2 161 51
129 2 161 77
130 2 192 156
131 2 192 110
133 2 192 150
134 1 141 142
135 1 131 132
136 2 171 9
137 2 171 37
138 2 171 45
139 2 171 104
140 2 188 103
141 2 188 123
142 2 188 131
143 2 188 141
144 2 195 115
145 2 195 38
146 2 193 124
147 2 193 155
148 2 193 142
149 2 193 148
150 1 155 156
151 1 69 70
152 1 9 10
153 1 43 44
154 1 99 100
155 2 174 2
156 2 174 47
157 2 174 58
158 2 174 91
159 1 63 64
160 2 177 26
161 2 177 160
162 2 177 99
163 2 177 96
164 1 47 48
165 1 159 160
166 2 175 64
167 2 175 127
168 2 175 139
169 2 175 144
170 2 186 12
171 2 186 74
172 2 186 107
173 2 186 111
174 1 57 58
175 1 49 50
176 1 21 22
177 2 200 21
178 2 200 42
179 2 200 112
180 2 200 129
181 1 17 18
182 1 109 110
183 2 196 122
184 2 196 130
185 2 196 100
186 2 196 135
187 1 147 148
188 1 41 42
189 1 15 16
190 1 83 84
191 2 185 11
192 2 185 15
193 2 185 84
194 2 185 108
195 1 11 12
196 1 107 108
197 1 53 54
198 1 1 2
199 1 113 114
200 1 19 20
201 1 151 152
202 2 168 1
203 2 168 35
204 2 168 40
205 2 168 69
206 1 157 158
207 2 179 41
208 2 179 46
209 2 199 10
210 2 199 140
211 2 199 157
212 2 199 114
213 1 35 36
214 1 123 124
215 1 103 104
216 2 170 19
217 2 170 50
218 2 170 109
219 2 170 113
220 1 39 40
221 1 59 60
222 2 180 89
223 2 180 152
224 2 180 159

