Generated by ZY code

200 atoms
2 atom types
217 bonds
2 bond types
0 angles
0 angle types
0 dihedrals
0 dihedral types
0 impropers
0 improper types

87.3408000000000015 112.6329528266555826 xlo xhi
97.0272999999999968 102.9600875750609532 ylo yhi
97.0489000000000033 102.9816875750609597 zlo zhi

Masses

1 1.000
2 1.500

Pair Coeffs

1 1.000000 1.000000
2 1.000000 1.000000

Bond Coeffs

1 100.000000 1.200000
2 100.000000 1.200000

Atoms # full

1 1 1 0.000000 111.443000 102.703000 101.163000 -1 -1 0
2 1 1 0.000000 111.916000 97.229600 100.186000 -1 -1 0
3 2 1 0.000000 92.037700 102.937000 99.997200 3 -1 2
4 2 1 0.000000 90.801300 102.768000 100.130000 2 0 2
5 3 1 0.000000 89.162300 102.418000 98.641000 -1 0 0
6 3 1 0.000000 90.214300 101.952000 99.077200 -1 -1 0
7 4 1 0.000000 98.090600 98.229600 98.665000 -1 -1 1
8 4 1 0.000000 99.103800 98.997200 98.583400 -1 -1 1
9 5 1 0.000000 107.874000 101.846000 100.334000 -1 -2 1
10 5 1 0.000000 108.886000 101.612000 100.815000 -1 -2 2
11 6 1 0.000000 105.029000 101.063000 98.764200 -1 0 1
12 6 1 0.000000 106.164000 101.255000 98.327000 -1 1 1
13 7 1 0.000000 95.081000 102.547000 98.498800 -1 1 1
14 7 1 0.000000 96.256400 102.794000 98.563400 -1 1 1
15 8 1 0.000000 102.623000 100.525000 98.753300 -2 -1 0
16 8 1 0.000000 101.438000 99.942400 98.851900 -2 -1 0
17 9 1 0.000000 90.729200 98.254900 102.180000 1 -1 -1
18 9 1 0.000000 91.088300 99.394500 102.131000 1 0 -1
19 10 1 0.000000 87.930300 101.824000 101.303000 0 0 0
20 10 1 0.000000 89.171600 101.790000 101.145000 1 0 0
21 11 1 0.000000 111.094000 97.773900 101.841000 -1 -1 0
22 11 1 0.000000 111.719000 98.787300 101.387000 -1 -1 0
23 12 1 0.000000 98.339800 98.114100 99.656700 0 1 1
24 12 1 0.000000 99.530700 98.407600 99.412500 0 1 1
25 13 1 0.000000 88.510200 102.947000 99.392700 1 1 1
26 13 1 0.000000 87.518700 102.725000 98.737200 0 2 1
27 14 1 0.000000 87.955200 100.368000 100.502000 -1 1 2
28 14 1 0.000000 88.950500 101.082000 100.379000 -1 1 2
29 15 1 0.000000 89.848300 101.609000 102.098000 1 0 -1
30 15 1 0.000000 90.327100 100.499000 102.207000 1 0 -1
31 16 1 0.000000 90.318400 97.381400 101.415000 -1 1 -2
32 16 1 0.000000 91.330400 97.419300 102.067000 -1 1 -2
33 17 1 0.000000 92.295500 101.985000 99.522400 -1 0 1
34 17 1 0.000000 91.128800 101.779000 99.799200 -3 2 1
35 18 1 0.000000 87.896600 101.457000 100.277000 -1 0 -1
36 18 1 0.000000 88.842300 102.179000 100.174000 -1 0 -1
37 19 1 0.000000 106.026000 102.196000 101.703000 -3 1 2
38 19 1 0.000000 105.352000 102.437000 102.662000 -3 1 2
39 20 1 0.000000 112.040000 101.343000 100.002000 0 1 -1
40 20 1 0.000000 112.522000 101.015000 101.039000 0 1 -1
41 21 1 0.000000 110.059000 102.185000 102.100000 -3 3 -2
42 21 1 0.000000 110.438000 97.119200 101.331000 -3 3 -1
43 22 1 0.000000 92.559700 102.039000 100.657000 -1 -1 1
44 22 1 0.000000 91.500400 101.866000 100.957000 -1 -1 1
45 23 1 0.000000 108.201000 102.484000 101.219000 -3 0 1
46 23 1 0.000000 107.964000 101.357000 101.320000 -3 0 1
47 24 1 0.000000 112.088000 98.421100 100.241000 2 0 0
48 24 1 0.000000 87.575100 97.596700 100.617000 0 1 0
49 25 1 0.000000 88.638300 97.097500 102.219000 1 -1 1
50 25 1 0.000000 87.582400 102.555000 102.481000 1 -1 0
51 26 1 0.000000 94.288000 102.371000 99.186400 0 -2 -1
52 26 1 0.000000 95.410100 102.206000 99.577200 0 -2 -1
53 27 1 0.000000 88.553200 102.697000 101.170000 0 -1 -1
54 27 1 0.000000 89.638700 102.748000 100.716000 0 -1 -1
55 28 1 0.000000 90.906500 101.327000 101.776000 -1 -1 0
56 28 1 0.000000 91.982000 100.959000 101.376000 0 -2 0
57 29 1 0.000000 112.498000 99.191600 102.218000 3 -1 0
58 29 1 0.000000 87.490400 98.696700 101.156000 2 1 0
59 30 1 0.000000 91.664500 100.250000 100.561000 1 -3 -2
60 30 1 0.000000 91.993600 99.877700 101.667000 1 -3 -2
61 31 1 0.000000 90.042600 97.748300 100.396000 0 0 0
62 31 1 0.000000 89.240400 97.583500 101.303000 0 0 0
63 32 1 0.000000 111.694000 100.472000 100.570000 2 1 -1
64 32 1 0.000000 110.936000 101.221000 100.047000 2 1 -1
65 33 1 0.000000 91.287600 102.930000 101.077000 0 -2 0
66 33 1 0.000000 92.514600 97.182500 101.016000 2 -3 0
67 34 1 0.000000 92.552400 101.074000 102.516000 0 1 -1
68 34 1 0.000000 93.270000 101.637000 97.386100 0 1 0
69 35 1 0.000000 111.310000 102.220000 100.130000 0 0 1
70 35 1 0.000000 110.201000 102.700000 100.140000 1 0 1
71 36 1 0.000000 100.947000 98.249800 98.335900 1 -1 1
72 36 1 0.000000 101.995000 97.463400 98.277200 1 -1 1
73 37 1 0.000000 109.515000 101.926000 97.275100 0 0 -1
74 37 1 0.000000 108.315000 101.864000 97.670900 0 0 0
75 38 1 0.000000 94.608200 97.412700 99.685100 0 0 0
76 38 1 0.000000 95.923700 97.439400 99.443000 0 0 0
77 39 1 0.000000 93.710900 101.227000 99.100800 1 -1 0
78 39 1 0.000000 94.763100 101.576000 98.625900 1 -1 0
79 40 1 0.000000 87.340800 101.658000 97.449700 -2 2 0
80 40 1 0.000000 88.199500 102.041000 98.203400 0 0 0
81 41 1 0.000000 94.497800 102.412000 100.334000 -2 0 -1
82 41 1 0.000000 93.492400 102.503000 100.936000 -2 0 -1
83 42 1 0.000000 101.889000 102.476000 98.968000 -1 -1 -1
84 42 1 0.000000 102.639000 101.574000 98.685400 -1 -1 -1
85 43 1 0.000000 99.497500 102.943000 99.468300 -1 1 0
86 43 1 0.000000 98.314600 97.166500 99.095200 -2 2 0
87 44 1 0.000000 90.961000 100.277000 101.387000 0 1 0
88 44 1 0.000000 89.979000 100.993000 101.220000 0 1 0
89 45 1 0.000000 107.672000 102.633000 98.383700 0 -1 -2
90 45 1 0.000000 106.709000 102.024000 98.878500 0 -1 -2
91 46 1 0.000000 87.523200 102.826000 101.439000 -1 0 0
92 46 1 0.000000 88.221200 97.878100 101.361000 -2 0 0
93 47 1 0.000000 89.235600 101.545000 99.358400 -2 2 1
94 47 1 0.000000 88.106900 101.943000 99.324500 -1 1 1
95 48 1 0.000000 88.380500 97.239600 98.201700 -1 2 2
96 48 1 0.000000 87.484100 102.685000 97.645300 -2 3 2
97 49 1 0.000000 103.359000 101.698000 99.440000 -1 -1 0
98 49 1 0.000000 104.330000 102.037000 98.884300 -1 -1 0
99 50 1 0.000000 111.768000 102.403000 97.048900 2 -2 0
100 50 1 0.000000 112.267000 97.525200 97.123000 0 0 -1
101 51 1 0.000000 87.876200 102.582000 100.248000 -1 1 1
102 51 1 0.000000 87.442500 97.498900 99.534400 0 0 1
103 52 1 0.000000 105.966000 101.464000 99.494900 0 -1 -1
104 52 1 0.000000 106.847000 102.139000 99.947100 0 -1 -1
105 53 1 0.000000 104.965000 102.706000 97.908200 -1 0 -1
106 53 1 0.000000 103.982000 97.027300 98.448300 -1 0 -1
107 54 1 0.000000 105.874000 102.015000 97.620400 -1 -1 -1
108 54 1 0.000000 104.721000 101.649000 97.954100 -1 -1 -1
109 55 1 0.000000 111.062000 102.515000 102.127000 -2 0 -1
110 55 1 0.000000 110.626000 102.016000 101.118000 -2 -1 -1
111 56 1 0.000000 107.823000 102.457000 102.875000 0 -1 0
112 56 1 0.000000 109.005000 102.767000 102.603000 0 -1 -1
113 57 1 0.000000 111.728000 100.758000 101.790000 -1 -2 -1
114 57 1 0.000000 110.769000 100.767000 101.070000 0 -3 -1
115 58 1 0.000000 103.505000 102.080000 98.132900 1 0 0
116 58 1 0.000000 102.346000 102.345000 97.910200 1 0 0
117 59 1 0.000000 88.464200 102.360000 97.180400 1 -1 0
118 59 1 0.000000 89.086500 97.434400 97.382500 1 -1 0
119 60 1 0.000000 90.741700 98.318100 101.097000 -1 0 1
120 60 1 0.000000 91.700600 98.550300 101.739000 -1 0 1
121 61 1 0.000000 110.983000 100.616000 102.688000 0 0 -1
122 61 1 0.000000 111.492000 99.582500 102.256000 -1 1 -1
123 62 1 0.000000 105.829000 101.958000 100.550000 0 -2 -1
124 62 1 0.000000 105.949000 102.593000 99.528700 -1 -1 -1
125 63 1 0.000000 91.962800 101.239000 100.226000 1 0 -1
126 63 1 0.000000 93.088300 101.017000 100.493000 1 0 -1
127 64 1 0.000000 111.564000 101.715000 99.100500 0 0 0
128 64 1 0.000000 111.266000 102.849000 99.241100 1 -1 0
129 65 1 0.000000 111.183000 97.485700 102.980000 -1 1 0
130 65 1 0.000000 111.952000 97.151200 102.114000 2 -2 0
131 66 1 0.000000 104.297000 101.133000 99.576400 -1 0 -1
132 66 1 0.000000 89.528800 102.440000 102.833000 -1 0 -1
133 67 1 0.000000 90.180500 99.507100 101.522000 0 1 1
134 67 1 0.000000 91.268700 99.292300 101.041000 0 1 1
135 68 1 0.000000 87.521700 97.780500 102.130000 0 -1 -1
136 68 1 0.000000 88.726100 98.160800 102.290000 0 -1 -1
137 69 1 0.000000 111.783000 101.364000 102.677000 1 0 0
138 69 1 0.000000 87.646000 101.454000 102.322000 0 0 0
139 70 1 0.000000 110.155000 101.041000 97.851100 0 -1 1
140 70 1 0.000000 109.988000 101.132000 102.587000 0 -2 1
141 71 1 0.000000 105.009000 97.070500 98.955300 1 -2 -2
142 71 1 0.000000 106.108000 102.913000 98.478800 2 -3 -2
143 72 1 0.000000 93.239400 102.740000 99.007300 -1 2 -1
144 72 1 0.000000 109.629000 101.370000 99.063600 -1 2 -1
145 73 1 0.000000 90.601000 102.562000 102.187000 1 0 1
146 73 1 0.000000 89.518300 102.584000 101.766000 1 0 1
147 74 1 0.000000 106.367000 102.923000 100.631000 -1 1 -1
148 74 1 0.000000 107.528000 102.905000 100.340000 -1 1 -1
149 75 1 0.000000 108.691000 102.640000 100.292000 -1 1 -1
150 75 1 0.000000 109.569000 102.400000 101.090000 -1 1 -1
151 76 1 0.000000 110.546000 102.007000 99.307900 -2 -1 -1
152 76 1 0.000000 109.435000 102.446000 99.396700 -1 -1 -1
153 77 1 0.000000 112.539000 101.700000 98.574400 0 0 -1
154 77 1 0.000000 111.627000 101.381000 97.871100 0 0 -1
155 78 1 0.000000 108.016000 102.476000 99.409000 -1 -2 0
156 78 1 0.000000 108.809000 101.642000 99.759100 -1 -2 0
157 79 1 0.000000 110.904000 101.434000 101.977000 0 -1 1
158 79 1 0.000000 111.557000 101.532000 100.958000 -1 0 1
159 80 1 0.000000 109.633000 102.247000 98.299300 0 -1 0
160 80 1 0.000000 110.754000 101.863000 98.271900 0 -1 0
161 81 2 0.000000 93.420200 102.015000 99.906600 1 -1 2
162 82 2 0.000000 91.514600 100.511000 102.381000 2 0 0
163 83 2 0.000000 89.961000 101.719000 100.192000 1 2 -1
164 84 2 0.000000 110.729000 101.780000 97.115600 0 -1 2
165 85 2 0.000000 90.809300 101.115000 100.570000 1 2 -3
166 86 2 0.000000 89.672600 102.644000 99.667400 2 1 2
167 87 2 0.000000 112.422000 99.764500 101.169000 -1 2 -1
168 88 2 0.000000 112.360000 102.169000 100.708000 -2 -1 -1
169 89 2 0.000000 93.291500 97.234100 99.999700 -1 1 1
170 90 2 0.000000 112.082000 101.937000 101.819000 0 -1 1
171 91 2 0.000000 107.056000 102.164000 101.146000 0 1 -1
172 92 2 0.000000 100.312000 99.223100 98.827600 0 -3 1
173 93 2 0.000000 112.311000 102.321000 99.599300 0 0 1
174 94 2 0.000000 112.040000 97.756400 101.250000 1 1 0
175 95 2 0.000000 110.742000 100.934000 98.899100 0 0 1
176 96 2 0.000000 88.727100 97.496000 100.319000 -1 -2 -1
177 97 2 0.000000 111.796000 102.399000 98.230100 0 1 1
178 98 2 0.000000 93.944000 102.323000 98.140400 0 1 2
179 99 2 0.000000 108.943000 101.838000 101.908000 0 2 3
180 100 2 0.000000 108.581000 101.871000 98.722600 0 4 0
181 101 2 0.000000 100.670000 102.533000 99.205400 -1 0 0
182 102 2 0.000000 97.336300 97.364500 98.264000 1 -3 0
183 103 2 0.000000 89.781000 97.539400 102.348000 0 2 0
184 104 2 0.000000 105.507000 102.071000 98.704000 1 0 -1
185 105 2 0.000000 103.788000 101.091000 98.585700 0 -1 1
186 106 2 0.000000 107.079000 101.877000 97.798400 -2 0 1
187 107 2 0.000000 102.902000 102.701000 98.810800 0 -1 0
188 108 2 0.000000 104.952000 102.121000 99.743900 1 0 1
189 109 2 0.000000 88.063400 97.543800 97.104000 -1 4 -2
190 110 2 0.000000 97.223800 97.634700 99.319900 1 0 0
191 111 2 0.000000 89.750600 98.425700 101.720000 3 1 -1
192 112 2 0.000000 109.915000 101.623000 100.204000 -4 0 0
193 113 2 0.000000 107.006000 97.129500 99.240000 -1 2 0
194 114 2 0.000000 90.358600 102.159000 101.209000 0 -1 0
195 115 2 0.000000 104.232000 102.253000 97.175500 0 2 0
196 116 2 0.000000 111.791000 98.367700 102.380000 -2 1 0
197 117 2 0.000000 88.702800 101.969000 102.108000 -1 -3 -3
198 118 2 0.000000 101.185000 102.563000 98.156900 1 0 1
199 119 2 0.000000 109.827000 101.364000 101.427000 -2 1 0
200 120 2 0.000000 110.123000 97.302500 102.456000 0 1 0

Velocities 

139 0.551201 0.091183 -0.309784
25 -0.235395 0.278005 0.249119
27 -0.629085 -0.066512 -0.134619
125 0.173978 -0.034583 0.116666
28 0.139101 -0.223492 0.343473
91 0.107050 0.093237 0.416890
128 -0.088097 0.301844 0.191848
96 0.073142 -0.062747 -0.311723
4 -0.282020 -0.480385 -0.669453
26 -0.184788 -0.150706 0.263753
95 0.119027 0.459692 0.194406
169 0.246011 -0.381422 -0.314290
166 0.198290 0.234802 0.004763
14 0.121039 0.083937 0.480719
74 -0.176686 0.398380 0.173274
167 0.152778 -0.246243 0.010857
61 -0.155847 -0.229130 -0.584901
67 -0.462848 -0.236614 0.082153
58 -0.114019 0.210438 0.198966
55 0.378085 -0.284113 0.532360
135 -0.137552 0.246764 0.213868
82 -0.160078 0.014779 -0.032437
66 -0.057405 -0.174159 -0.327370
56 0.014902 0.158946 -0.214076
137 0.386335 0.039724 0.297490
118 -0.519595 -0.169225 -0.227327
62 0.518419 0.310439 0.321741
183 -0.330137 0.139107 0.099777
81 0.577658 -0.155993 0.174885
136 0.071804 0.060478 0.049579
18 0.098687 -0.549337 -0.431972
117 0.078876 0.271917 0.004057
73 -0.071471 0.166634 -0.253730
150 0.108244 0.260561 0.656657
102 0.189821 -0.406727 -0.127579
173 -0.021633 -0.217613 0.233300
94 -0.040549 0.388850 -0.524878
80 -0.209736 -0.308654 0.140761
127 0.081172 0.113015 0.429960
176 -0.167009 -0.325623 -0.555200
154 -0.090424 0.416827 0.393238
163 -0.119382 0.033324 -0.010580
92 -0.783613 0.119674 0.371175
126 -0.090599 0.011224 -0.100063
51 -0.305553 0.004148 -0.395580
93 -0.103538 -0.041903 0.181430
101 0.200261 0.716790 -0.121002
79 0.304760 -0.091305 -0.661565
153 -0.205115 0.154472 0.214407
38 -0.271786 -0.260607 -0.170854
30 -0.011440 0.045131 0.008414
197 -0.096695 0.014512 0.033091
121 -0.375431 -0.000697 -0.323869
65 -0.166224 -0.267139 -0.016076
138 -0.474879 -0.202068 0.153742
87 -0.057956 -0.051381 -0.243726
194 0.075620 -0.218268 0.083846
20 -0.217724 0.150559 -0.135561
164 0.077204 0.313357 -0.069754
165 0.117903 -0.174855 0.380075
29 -0.258005 -0.107676 -0.264125
88 0.159384 0.794500 -0.540393
162 0.313082 0.455667 -0.383558
97 0.081594 0.217113 -0.072953
122 -0.586099 0.041671 0.144008
33 0.139163 -0.290060 -0.139349
34 -0.462671 -0.251858 0.299739
7 -0.073610 0.166078 0.420473
23 -0.163748 0.385603 -0.153854
178 -0.220462 0.033905 0.013378
146 -0.345804 0.169392 0.396732
182 -0.360510 -0.099532 0.248517
75 0.040076 -0.078904 -0.302747
3 -0.387229 -0.006945 -0.677267
8 -0.043972 -0.006088 -0.268247
111 -0.226615 -0.071962 0.176668
13 -0.178941 -0.275434 -0.187141
5 -0.127300 0.051296 0.346713
76 0.781482 0.595023 0.215214
78 -0.034551 0.232925 0.391237
187 0.127816 0.397024 0.239248
24 0.200667 0.359961 -0.169997
172 -0.233942 -0.436595 -0.456980
189 0.127722 0.096915 0.389041
145 0.306391 0.022888 0.028675
143 0.052871 -0.093032 0.637995
68 0.052887 0.059076 -0.702409
31 -0.307584 -0.481720 0.286204
90 -0.022784 -0.069170 -0.193497
70 0.050962 0.147523 0.377665
191 0.061137 0.180321 0.091654
105 -0.069694 -0.105945 0.119577
120 0.396779 -0.350984 -0.450806
149 0.842433 0.228891 -0.018248
184 0.076609 -0.025349 0.524426
133 0.408558 -0.040760 0.427576
119 -0.241668 0.183640 0.344949
32 0.558195 0.153563 -0.123518
112 0.291653 0.090667 -0.231091
129 -0.177100 -0.002459 -0.311391
89 0.613338 -0.215692 0.336324
71 -0.371347 -0.142577 -0.291830
181 -0.310304 0.102591 0.170821
52 -0.157981 0.094038 0.045175
37 -0.284471 0.143830 0.092639
46 -0.031586 0.039539 -0.304455
142 -0.217276 0.794962 0.122984
6 -0.091446 -0.042422 0.359174
115 0.103496 0.118273 -0.121136
116 0.019348 0.069456 -0.399506
77 0.306780 -0.000895 0.152201
85 0.368962 0.128541 -0.412988
190 0.022290 -0.069299 -0.064565
198 -0.350920 -0.609302 -0.497267
86 -0.376393 0.281396 -0.009101
45 -0.320146 0.215519 0.258658
161 0.136466 -0.218782 -0.397862
156 -0.306176 0.165110 0.228129
192 0.124692 0.119457 0.030344
141 -0.039776 -0.503905 0.051156
110 -0.136977 -0.447004 -0.375118
131 0.249296 -0.422309 -0.136058
132 0.136412 0.121007 0.166824
171 0.101423 0.147514 0.016405
44 -0.316796 -0.467975 0.133842
188 -0.071923 -0.039128 0.221123
195 0.074897 0.026144 -0.034672
193 -0.296824 0.138134 -0.383215
155 -0.085898 -0.069067 0.287188
158 0.586562 0.256940 -0.001734
69 -0.153605 0.266983 0.194670
134 0.305638 -0.730070 0.063505
9 -0.269443 -0.139444 0.333333
98 -0.049256 -0.216514 0.356088
43 -0.050684 -0.011223 0.265176
12 -0.024315 0.818969 0.348007
144 0.782984 -0.739355 0.084038
160 -0.512669 0.135481 -0.216357
99 0.024804 -0.107038 0.371771
174 0.399845 -0.128411 -0.305977
63 -0.347591 -0.046933 -0.573460
177 -0.331880 -0.047979 -0.383010
47 0.041730 -0.080085 -0.261102
159 0.436907 -0.185162 -0.104609
175 -0.246869 0.239615 -0.362040
186 -0.349089 -0.343172 0.116697
64 -0.595951 -0.235473 0.120107
57 0.366571 -0.710267 -0.239408
42 0.366037 -0.120580 -0.499465
49 0.425093 -0.009406 0.377975
36 -0.094870 0.103506 -0.015188
148 -0.054041 -0.075152 -0.227510
21 -0.021122 -0.044128 0.128053
50 0.138789 -0.120118 0.236167
60 -0.039070 0.452038 -0.202016
200 0.053255 -0.089056 0.181416
17 0.350329 0.431728 0.255878
109 0.217302 -0.467731 0.175053
196 -0.228445 0.142420 0.163731
22 0.143064 -0.615899 0.136028
147 -0.225693 -0.159328 -0.469631
41 -0.574627 -0.152595 0.424764
152 -0.366569 -0.111914 0.385429
106 0.003004 0.116194 0.004010
72 0.550718 -0.199657 -0.227764
100 0.155224 -0.420810 -0.051216
15 0.185931 0.089424 0.305738
140 0.020471 -0.185196 -0.193274
83 0.282684 -0.188536 0.202157
185 -0.001509 0.617770 0.065772
11 0.370895 -0.627185 -0.005553
107 0.278148 0.561411 -0.160378
84 0.223899 0.281426 -0.302367
10 0.027584 -0.228721 0.164192
53 0.767020 0.206630 0.222416
54 0.279703 -0.269571 -0.086471
48 -0.324081 -0.313588 0.003126
16 0.485864 0.181126 -0.047095
1 -0.104468 0.122920 -0.487083
114 -0.136212 -0.081724 -0.116509
124 -0.019832 -0.068718 -0.073853
113 -0.261642 0.309989 0.158970
108 -0.601040 -0.038275 0.172880
19 0.292232 0.238514 -0.253753
151 0.374609 -0.263731 -0.091445
168 0.063404 -0.562985 -0.167878
157 0.020233 0.091508 0.181063
179 0.027631 0.281612 0.495976
199 -0.184837 -0.334838 0.245443
35 0.648424 -0.253047 0.388225
123 -0.045504 0.263956 -0.264360
103 -0.104902 0.346102 -0.393031
170 -0.404444 0.039897 -0.199440
39 0.275118 0.003267 -0.374140
2 0.423976 0.281458 0.332414
130 -0.068381 0.214929 0.045656
59 0.264931 -0.229610 -0.231902
104 0.158973 0.166337 0.201115
180 0.217978 0.395121 0.289315
40 -0.264928 0.488004 -0.638810

Bonds

1 1 139 140
2 1 25 26
3 1 27 28
4 1 125 126
5 1 91 92
6 1 95 96
7 2 169 3
8 2 169 66
9 2 169 75
10 2 169 82
11 2 166 5
12 2 166 93
13 2 166 4
14 2 166 25
15 2 167 22
16 2 167 27
17 2 167 57
18 2 167 63
19 1 61 62
20 1 67 68
21 1 55 56
22 1 135 136
23 1 137 138
24 2 183 17
25 2 183 49
26 2 183 62
27 2 183 118
28 1 81 82
29 1 117 118
30 1 73 74
31 2 173 94
32 2 173 102
33 2 173 128
34 2 173 153
35 1 127 128
36 2 176 48
37 2 176 53
38 2 176 92
39 2 176 101
40 2 163 28
41 2 163 34
42 2 163 36
43 2 163 54
44 1 51 52
45 1 93 94
46 1 101 102
47 1 79 80
48 1 153 154
49 2 197 29
51 2 197 132
52 2 197 138
53 1 121 122
54 1 65 66
55 1 87 88
56 2 194 20
57 2 194 44
58 2 194 88
59 2 194 65
60 2 164 73
61 2 164 137
62 2 164 121
63 2 165 55
64 2 165 59
65 2 165 87
66 2 165 125
67 1 29 30
68 2 162 18
69 2 162 30
70 2 162 56
71 2 162 67
72 1 97 98
73 1 33 34
74 1 7 8
75 1 23 24
76 2 178 13
77 2 178 68
78 2 178 78
79 2 178 143
80 2 182 14
81 1 75 76
82 1 3 4
83 1 111 112
84 1 13 14
85 1 5 6
86 2 187 72
87 2 187 106
88 2 172 8
89 2 172 16
90 2 172 24
91 2 172 71
92 2 189 95
93 2 189 117
94 1 145 146
96 1 31 32
97 2 191 119
98 2 191 133
99 2 191 136
100 2 191 31
101 1 105 106
102 1 149 150
104 2 184 90
105 2 184 98
106 2 184 105
107 1 133 134
108 1 119 120
109 1 129 130
110 1 89 90
111 1 71 72
114 2 181 83
115 2 181 85
116 1 37 38
117 1 115 116
118 1 77 78
119 1 85 86
120 2 190 7
121 2 190 76
122 2 190 23
123 2 190 86
124 2 198 116
125 1 45 46
126 2 161 33
127 2 161 43
128 2 161 51
129 2 161 77
130 2 192 156
131 2 192 110
133 2 192 150
134 1 141 142
136 2 171 9
137 2 171 37
138 2 171 45
139 2 171 104
140 2 188 103
141 2 188 123
142 2 188 131
143 2 188 141
144 2 195 115
145 2 195 38
146 2 193 124
147 2 193 155
148 2 193 142
149 2 193 148
150 1 155 156
151 1 69 70
152 1 9 10
153 1 43 44
154 1 99 100
155 2 174 2
156 2 174 47
157 2 174 58
158 2 174 91
159 1 63 64
160 2 177 26
161 2 177 160
162 2 177 99
163 2 177 96
164 1 47 48
165 1 159 160
166 2 175 64
167 2 175 127
168 2 175 139
169 2 175 144
170 2 186 12
171 2 186 74
172 2 186 107
173 2 186 111
174 1 57 58
175 1 49 50
176 1 21 22
177 2 200 21
178 2 200 42
179 2 200 112
180 2 200 129
181 1 17 18
182 1 109 110
183 2 196 122
184 2 196 130
185 2 196 100
186 2 196 135
187 1 147 148
188 1 41 42
189 1 15 16
190 1 83 84
191 2 185 11
192 2 185 15
193 2 185 84
194 2 185 108
195 1 11 12
196 1 107 108
197 1 53 54
198 1 1 2
199 1 113 114
200 1 19 20
201 1 151 152
202 2 168 1
203 2 168 35
204 2 168 40
205 2 168 69
206 1 157 158
207 2 179 41
208 2 179 46
209 2 199 10
210 2 199 140
211 2 199 157
212 2 199 114
213 1 35 36
214 1 123 124
215 1 103 104
216 2 170 19
217 2 170 50
218 2 170 109
219 2 170 113
220 1 39 40
221 1 59 60
222 2 180 89
223 2 180 152
224 2 180 159

