Generated by ZY code

200 atoms
2 atom types
223 bonds
2 bond types
0 angles
0 angle types
0 dihedrals
0 dihedral types
0 impropers
0 improper types

92.1961000000000013 107.8464641121572072 xlo xhi
97.0357000000000056 102.9684875750609621 ylo yhi
97.1129999999999995 103.0457875750609560 zlo zhi

Masses

1 1.000
2 1.500

Pair Coeffs

1 1.000000 1.000000
2 1.000000 1.000000

Bond Coeffs

1 100.000000 1.200000
2 100.000000 1.200000

Atoms # full

1 1 1 0.000000 103.818000 102.851000 100.128000 -1 -1 0
2 1 1 0.000000 104.957000 102.824000 99.946300 -1 -1 0
3 2 1 0.000000 96.477100 102.455000 99.546400 3 -1 2
4 2 1 0.000000 95.968100 102.400000 98.481200 2 0 2
5 3 1 0.000000 96.316900 102.409000 97.470000 -1 0 0
6 3 1 0.000000 97.592800 102.457000 97.400000 -1 -1 0
7 4 1 0.000000 100.012000 98.279400 99.974100 -1 -1 1
8 4 1 0.000000 100.534000 99.379000 100.068000 -1 -1 1
9 5 1 0.000000 103.060000 101.312000 102.659000 -1 -2 1
10 5 1 0.000000 104.258000 101.243000 102.543000 -1 -2 2
11 6 1 0.000000 104.004000 102.693000 98.002600 -1 0 1
12 6 1 0.000000 105.275000 102.657000 97.664600 -1 1 1
13 7 1 0.000000 99.022600 100.628000 99.158500 -1 1 1
14 7 1 0.000000 98.014900 100.732000 99.711300 -1 1 1
15 8 1 0.000000 102.157000 102.153000 98.996900 -2 -1 0
16 8 1 0.000000 101.304000 101.432000 99.511800 -2 -1 0
17 9 1 0.000000 95.634000 97.629300 102.347000 1 -1 -1
18 9 1 0.000000 96.121500 98.781800 102.433000 1 0 -1
19 10 1 0.000000 107.494000 101.797000 100.889000 0 0 0
20 10 1 0.000000 93.073200 101.913000 101.007000 1 0 0
21 11 1 0.000000 107.373000 98.056500 101.218000 -1 -1 0
22 11 1 0.000000 106.784000 98.950000 100.560000 -1 -1 0
23 12 1 0.000000 99.089400 98.729600 99.666600 0 1 1
24 12 1 0.000000 99.668100 99.855400 99.591700 0 1 1
25 13 1 0.000000 93.944300 97.035700 97.714900 1 1 1
26 13 1 0.000000 92.903900 102.762000 97.113000 0 2 1
27 14 1 0.000000 106.563000 100.941000 99.735600 -1 1 2
28 14 1 0.000000 106.138000 101.833000 99.183300 -1 1 2
29 15 1 0.000000 98.757300 100.771000 102.653000 1 0 -1
30 15 1 0.000000 97.557100 100.739000 102.547000 1 0 -1
31 16 1 0.000000 98.204300 102.912000 101.946000 -1 1 -2
32 16 1 0.000000 99.079100 102.560000 101.198000 -1 1 -2
33 17 1 0.000000 94.283400 101.729000 99.387300 -1 0 1
34 17 1 0.000000 92.919200 101.749000 99.627000 -3 2 1
35 18 1 0.000000 104.648000 101.777000 100.318000 -1 0 -1
36 18 1 0.000000 105.893000 101.766000 100.185000 -1 0 -1
37 19 1 0.000000 100.582000 101.640000 102.732000 -3 1 2
38 19 1 0.000000 99.349300 101.642000 102.911000 -3 1 2
39 20 1 0.000000 105.031000 101.916000 99.358000 0 1 -1
40 20 1 0.000000 103.835000 101.735000 99.411200 0 1 -1
41 21 1 0.000000 105.711000 97.374000 101.258000 -3 3 -2
42 21 1 0.000000 106.821000 97.235800 101.683000 -3 3 -1
43 22 1 0.000000 96.254600 101.695000 100.265000 -1 -1 1
44 22 1 0.000000 95.063200 101.877000 100.239000 -1 -1 1
45 23 1 0.000000 102.775000 102.339000 102.706000 -3 0 1
46 23 1 0.000000 103.824000 102.219000 102.233000 -3 0 1
47 24 1 0.000000 106.739000 102.696000 98.989900 2 0 0
48 24 1 0.000000 92.196100 102.398000 99.154400 0 1 0
49 25 1 0.000000 93.419700 102.868000 101.545000 1 -1 1
50 25 1 0.000000 107.800000 102.760000 101.247000 1 -1 0
51 26 1 0.000000 96.507200 101.319000 98.326900 0 -2 -1
52 26 1 0.000000 97.709200 101.445000 98.089900 0 -2 -1
53 27 1 0.000000 92.628300 102.574000 100.250000 0 -1 -1
54 27 1 0.000000 107.280000 97.123400 99.924100 0 -1 -1
55 28 1 0.000000 98.480700 99.884300 101.317000 -1 -1 0
56 28 1 0.000000 97.482500 99.242700 101.547000 0 -2 0
57 29 1 0.000000 105.895000 98.697400 99.934000 3 -1 0
58 29 1 0.000000 106.518000 97.823100 100.565000 2 1 0
59 30 1 0.000000 96.490800 100.774000 102.286000 1 -3 -2
60 30 1 0.000000 96.455300 99.801500 101.613000 1 -3 -2
61 31 1 0.000000 96.635600 102.004000 101.231000 0 0 0
62 31 1 0.000000 95.829100 102.782000 101.671000 0 0 0
63 32 1 0.000000 105.447000 100.796000 99.493700 2 1 -1
64 32 1 0.000000 104.394000 101.032000 98.891500 2 1 -1
65 33 1 0.000000 95.153900 102.897000 100.863000 0 -2 0
66 33 1 0.000000 96.308500 102.826000 100.561000 2 -3 0
67 34 1 0.000000 97.879400 100.193000 97.435300 0 1 -1
68 34 1 0.000000 98.696700 101.008000 97.859900 0 1 0
69 35 1 0.000000 102.185000 101.981000 100.425000 0 0 1
70 35 1 0.000000 101.048000 102.204000 100.462000 1 0 1
71 36 1 0.000000 100.061000 100.023000 101.027000 1 -1 1
72 36 1 0.000000 99.654000 99.024800 101.613000 1 -1 1
73 37 1 0.000000 93.350600 102.108000 102.317000 0 0 -1
74 37 1 0.000000 107.653000 102.234000 102.560000 0 0 0
75 38 1 0.000000 98.639200 102.689000 99.977000 0 0 0
76 38 1 0.000000 98.336800 97.893200 99.936900 0 0 0
77 39 1 0.000000 97.036300 101.576000 99.201000 1 -1 0
78 39 1 0.000000 98.334200 101.458000 98.956300 1 -1 0
79 40 1 0.000000 93.760900 97.239200 102.492000 -2 2 0
80 40 1 0.000000 94.307400 102.242000 102.965000 0 0 0
81 41 1 0.000000 99.412000 97.440600 100.489000 -2 0 -1
82 41 1 0.000000 98.252300 97.250000 100.850000 -2 0 -1
83 42 1 0.000000 100.121000 102.067000 97.733700 -1 -1 -1
84 42 1 0.000000 101.466000 102.098000 97.648800 -1 -1 -1
85 43 1 0.000000 99.046500 102.447000 98.941300 -1 1 0
86 43 1 0.000000 99.768200 102.527000 99.903400 -2 2 0
87 44 1 0.000000 96.393400 100.976000 101.277000 0 1 0
88 44 1 0.000000 95.506500 101.814000 101.240000 0 1 0
89 45 1 0.000000 102.951000 102.703000 99.424900 0 -1 -2
90 45 1 0.000000 101.743000 102.813000 99.864800 0 -1 -2
91 46 1 0.000000 106.549000 97.844000 99.413700 -1 0 0
92 46 1 0.000000 107.438000 97.492900 98.665800 -2 0 0
93 47 1 0.000000 94.024800 102.005000 98.249000 -2 2 1
94 47 1 0.000000 92.827500 101.729000 98.518100 -1 1 1
95 48 1 0.000000 94.087800 98.103700 97.543000 -1 2 2
96 48 1 0.000000 93.118600 97.730700 98.117300 -2 3 2
97 49 1 0.000000 98.821100 98.455700 100.720000 -1 -1 0
98 49 1 0.000000 99.958300 98.159100 101.018000 -1 -1 0
99 50 1 0.000000 93.011800 97.916100 102.918000 2 -2 0
100 50 1 0.000000 94.140300 98.210800 102.387000 0 0 -1
101 51 1 0.000000 93.443700 102.488000 99.044800 -1 1 1
102 51 1 0.000000 92.579900 102.714000 98.195800 0 0 1
103 52 1 0.000000 100.246000 101.146000 100.904000 0 -1 -1
104 52 1 0.000000 100.899000 100.985000 101.924000 0 -1 -1
105 53 1 0.000000 100.967000 97.956600 101.354000 -1 0 -1
106 53 1 0.000000 100.601000 99.069600 101.133000 -1 0 -1
107 54 1 0.000000 105.019000 102.118000 102.740000 -1 -1 -1
108 54 1 0.000000 103.839000 101.919000 97.331900 -1 -1 -1
109 55 1 0.000000 105.235000 102.428000 100.960000 -2 0 -1
110 55 1 0.000000 103.951000 102.405000 101.194000 -2 -1 -1
111 56 1 0.000000 107.025000 97.177900 102.746000 0 -1 0
112 56 1 0.000000 107.539000 98.300200 102.818000 0 -1 -1
113 57 1 0.000000 106.836000 101.968000 101.951000 -1 -2 -1
114 57 1 0.000000 105.994000 101.527000 101.246000 0 -3 -1
115 58 1 0.000000 96.895300 101.530000 97.243100 1 0 0
116 58 1 0.000000 97.016200 102.234000 98.309900 1 0 0
117 59 1 0.000000 94.735700 97.376100 102.927000 1 -1 0
118 59 1 0.000000 95.471800 102.451000 102.690000 1 -1 0
119 60 1 0.000000 100.127000 97.076700 101.289000 -1 0 1
120 60 1 0.000000 101.416000 102.907000 101.370000 -1 0 1
121 61 1 0.000000 95.454000 100.819000 101.906000 0 0 -1
122 61 1 0.000000 95.457800 99.605800 101.988000 -1 1 -1
123 62 1 0.000000 99.209900 101.561000 99.749700 0 -2 -1
124 62 1 0.000000 99.501600 100.588000 100.353000 -1 -1 -1
125 63 1 0.000000 97.684500 100.014000 100.483000 1 0 -1
126 63 1 0.000000 97.407200 101.194000 100.780000 1 0 -1
127 64 1 0.000000 104.730000 101.883000 98.293700 0 0 0
128 64 1 0.000000 106.020000 102.000000 98.132400 1 -1 0
129 65 1 0.000000 93.208800 97.976000 101.769000 -1 1 0
130 65 1 0.000000 94.340700 97.858800 101.386000 2 -2 0
131 66 1 0.000000 98.263700 100.965000 101.651000 -1 0 -1
132 66 1 0.000000 98.012500 102.093000 101.127000 -1 0 -1
133 67 1 0.000000 98.559800 98.827400 101.726000 0 1 1
134 67 1 0.000000 98.049300 99.783600 102.321000 0 1 1
135 68 1 0.000000 96.486700 98.066300 101.665000 0 -1 -1
136 68 1 0.000000 97.785600 97.923900 101.656000 0 -1 -1
137 69 1 0.000000 96.011700 101.735000 102.157000 1 0 0
138 69 1 0.000000 97.278400 101.623000 102.066000 0 0 0
139 70 1 0.000000 104.272000 100.967000 97.759500 0 -1 1
140 70 1 0.000000 105.365000 101.390000 97.513200 0 -2 1
141 71 1 0.000000 98.193200 101.737000 100.117000 1 -2 -2
142 71 1 0.000000 98.507700 100.719000 100.655000 2 -3 -2
143 72 1 0.000000 100.835000 101.434000 98.410500 -1 2 -1
144 72 1 0.000000 102.145000 101.407000 98.234600 -1 2 -1
145 73 1 0.000000 97.261000 102.908000 101.347000 1 0 1
146 73 1 0.000000 96.653900 102.605000 102.367000 1 0 1
147 74 1 0.000000 99.901600 100.810000 102.411000 -1 1 -1
148 74 1 0.000000 99.217900 99.775800 102.279000 -1 1 -1
149 75 1 0.000000 100.648000 102.607000 102.186000 -1 1 -1
150 75 1 0.000000 101.809000 102.617000 102.372000 -1 1 -1
151 76 1 0.000000 104.546000 97.375800 100.865000 -2 -1 -1
152 76 1 0.000000 104.396000 97.766200 99.684000 -1 -1 -1
153 77 1 0.000000 92.497700 101.837000 97.520800 0 0 -1
154 77 1 0.000000 93.612200 101.491000 97.281000 0 0 -1
155 78 1 0.000000 100.119000 101.756000 101.762000 -1 -2 0
156 78 1 0.000000 101.369000 101.926000 101.643000 -1 -2 0
157 79 1 0.000000 105.768000 102.400000 101.927000 0 -1 1
158 79 1 0.000000 104.717000 101.772000 101.643000 -1 0 1
159 80 1 0.000000 105.460000 102.755000 98.749900 0 -1 0
160 80 1 0.000000 106.517000 97.047200 97.948700 0 -1 0
161 81 2 0.000000 95.698400 101.681000 99.196100 1 -1 2
162 82 2 0.000000 96.952900 99.701800 102.610000 2 0 0
163 83 2 0.000000 107.196000 101.869000 99.868200 1 2 -1
164 84 2 0.000000 94.694300 101.753000 102.110000 0 -1 2
165 85 2 0.000000 97.396300 100.371000 101.586000 1 2 -3
166 86 2 0.000000 95.048300 102.454000 97.780500 2 1 2
167 87 2 0.000000 106.108000 99.862500 100.025000 -1 2 -1
168 88 2 0.000000 103.423000 101.766000 100.558000 -2 -1 -1
169 89 2 0.000000 97.462800 102.509000 100.268000 -1 1 1
170 90 2 0.000000 106.527000 102.491000 100.933000 0 -1 1
171 91 2 0.000000 101.832000 101.558000 102.578000 0 1 -1
172 92 2 0.000000 100.574000 100.555000 100.020000 0 -3 1
173 93 2 0.000000 107.267000 102.054000 98.281600 0 0 1
174 94 2 0.000000 106.134000 102.808000 99.971900 1 1 0
175 95 2 0.000000 103.453000 101.605000 98.331300 0 0 1
176 96 2 0.000000 92.719000 97.468300 99.401800 -1 -2 -1
177 97 2 0.000000 107.681000 97.495800 97.625500 0 1 1
178 98 2 0.000000 99.570700 101.507000 98.533100 0 1 2
179 99 2 0.000000 104.770000 102.854000 101.879000 0 2 3
180 100 2 0.000000 104.208000 102.674000 99.078100 0 4 0
181 101 2 0.000000 98.791500 102.120000 97.789200 -1 0 0
182 102 2 0.000000 98.652200 99.732800 99.992400 1 -3 0
183 103 2 0.000000 94.666000 102.913000 101.886000 0 2 0
184 104 2 0.000000 100.663000 97.323800 100.397000 1 0 -1
185 105 2 0.000000 102.765000 102.327000 97.870200 0 -1 1
186 106 2 0.000000 106.312000 102.212000 102.918000 -2 0 1
187 107 2 0.000000 99.592000 99.187200 100.463000 0 -1 0
188 108 2 0.000000 99.102900 101.538000 100.916000 1 0 1
189 109 2 0.000000 95.098100 98.462400 102.918000 -1 4 -2
190 110 2 0.000000 99.290400 97.560200 99.356600 1 0 0
191 111 2 0.000000 99.045100 97.701600 101.496000 3 1 -1
192 112 2 0.000000 102.598000 102.348000 101.486000 -4 0 0
193 113 2 0.000000 99.366000 100.739000 101.550000 -1 2 0
194 114 2 0.000000 94.293300 102.119000 101.162000 0 -1 0
195 115 2 0.000000 98.151800 101.534000 97.148500 0 2 0
196 116 2 0.000000 95.240400 98.471900 101.832000 -2 1 0
197 117 2 0.000000 98.529300 101.876000 102.139000 -1 -3 -3
198 118 2 0.000000 97.827300 102.418000 99.180300 1 0 1
199 119 2 0.000000 105.439000 101.252000 102.262000 -2 1 0
200 120 2 0.000000 92.234300 97.430500 102.148000 0 1 0

Velocities 

139 0.551201 0.091183 -0.309784
25 -0.235395 0.278005 0.249119
27 -0.629085 -0.066512 -0.134619
125 0.173978 -0.034583 0.116666
28 0.139101 -0.223492 0.343473
91 0.107050 0.093237 0.416890
128 -0.088097 0.301844 0.191848
96 0.073142 -0.062747 -0.311723
4 -0.282020 -0.480385 -0.669453
26 -0.184788 -0.150706 0.263753
95 0.119027 0.459692 0.194406
169 0.246011 -0.381422 -0.314290
166 0.198290 0.234802 0.004763
14 0.121039 0.083937 0.480719
74 -0.176686 0.398380 0.173274
167 0.152778 -0.246243 0.010857
61 -0.155847 -0.229130 -0.584901
67 -0.462848 -0.236614 0.082153
58 -0.114019 0.210438 0.198966
55 0.378085 -0.284113 0.532360
135 -0.137552 0.246764 0.213868
82 -0.160078 0.014779 -0.032437
66 -0.057405 -0.174159 -0.327370
56 0.014902 0.158946 -0.214076
137 0.386335 0.039724 0.297490
118 -0.519595 -0.169225 -0.227327
62 0.518419 0.310439 0.321741
183 -0.330137 0.139107 0.099777
81 0.577658 -0.155993 0.174885
136 0.071804 0.060478 0.049579
18 0.098687 -0.549337 -0.431972
117 0.078876 0.271917 0.004057
73 -0.071471 0.166634 -0.253730
150 0.108244 0.260561 0.656657
102 0.189821 -0.406727 -0.127579
173 -0.021633 -0.217613 0.233300
94 -0.040549 0.388850 -0.524878
80 -0.209736 -0.308654 0.140761
127 0.081172 0.113015 0.429960
176 -0.167009 -0.325623 -0.555200
154 -0.090424 0.416827 0.393238
163 -0.119382 0.033324 -0.010580
92 -0.783613 0.119674 0.371175
126 -0.090599 0.011224 -0.100063
51 -0.305553 0.004148 -0.395580
93 -0.103538 -0.041903 0.181430
101 0.200261 0.716790 -0.121002
79 0.304760 -0.091305 -0.661565
153 -0.205115 0.154472 0.214407
38 -0.271786 -0.260607 -0.170854
30 -0.011440 0.045131 0.008414
197 -0.096695 0.014512 0.033091
121 -0.375431 -0.000697 -0.323869
65 -0.166224 -0.267139 -0.016076
138 -0.474879 -0.202068 0.153742
87 -0.057956 -0.051381 -0.243726
194 0.075620 -0.218268 0.083846
20 -0.217724 0.150559 -0.135561
164 0.077204 0.313357 -0.069754
165 0.117903 -0.174855 0.380075
29 -0.258005 -0.107676 -0.264125
88 0.159384 0.794500 -0.540393
162 0.313082 0.455667 -0.383558
97 0.081594 0.217113 -0.072953
122 -0.586099 0.041671 0.144008
33 0.139163 -0.290060 -0.139349
34 -0.462671 -0.251858 0.299739
7 -0.073610 0.166078 0.420473
23 -0.163748 0.385603 -0.153854
178 -0.220462 0.033905 0.013378
146 -0.345804 0.169392 0.396732
182 -0.360510 -0.099532 0.248517
75 0.040076 -0.078904 -0.302747
3 -0.387229 -0.006945 -0.677267
8 -0.043972 -0.006088 -0.268247
111 -0.226615 -0.071962 0.176668
13 -0.178941 -0.275434 -0.187141
5 -0.127300 0.051296 0.346713
76 0.781482 0.595023 0.215214
78 -0.034551 0.232925 0.391237
187 0.127816 0.397024 0.239248
24 0.200667 0.359961 -0.169997
172 -0.233942 -0.436595 -0.456980
189 0.127722 0.096915 0.389041
145 0.306391 0.022888 0.028675
143 0.052871 -0.093032 0.637995
68 0.052887 0.059076 -0.702409
31 -0.307584 -0.481720 0.286204
90 -0.022784 -0.069170 -0.193497
70 0.050962 0.147523 0.377665
191 0.061137 0.180321 0.091654
105 -0.069694 -0.105945 0.119577
120 0.396779 -0.350984 -0.450806
149 0.842433 0.228891 -0.018248
184 0.076609 -0.025349 0.524426
133 0.408558 -0.040760 0.427576
119 -0.241668 0.183640 0.344949
32 0.558195 0.153563 -0.123518
112 0.291653 0.090667 -0.231091
129 -0.177100 -0.002459 -0.311391
89 0.613338 -0.215692 0.336324
71 -0.371347 -0.142577 -0.291830
181 -0.310304 0.102591 0.170821
52 -0.157981 0.094038 0.045175
37 -0.284471 0.143830 0.092639
46 -0.031586 0.039539 -0.304455
142 -0.217276 0.794962 0.122984
6 -0.091446 -0.042422 0.359174
115 0.103496 0.118273 -0.121136
116 0.019348 0.069456 -0.399506
77 0.306780 -0.000895 0.152201
85 0.368962 0.128541 -0.412988
190 0.022290 -0.069299 -0.064565
198 -0.350920 -0.609302 -0.497267
86 -0.376393 0.281396 -0.009101
45 -0.320146 0.215519 0.258658
161 0.136466 -0.218782 -0.397862
156 -0.306176 0.165110 0.228129
192 0.124692 0.119457 0.030344
141 -0.039776 -0.503905 0.051156
110 -0.136977 -0.447004 -0.375118
131 0.249296 -0.422309 -0.136058
132 0.136412 0.121007 0.166824
171 0.101423 0.147514 0.016405
44 -0.316796 -0.467975 0.133842
188 -0.071923 -0.039128 0.221123
195 0.074897 0.026144 -0.034672
193 -0.296824 0.138134 -0.383215
155 -0.085898 -0.069067 0.287188
158 0.586562 0.256940 -0.001734
69 -0.153605 0.266983 0.194670
134 0.305638 -0.730070 0.063505
9 -0.269443 -0.139444 0.333333
98 -0.049256 -0.216514 0.356088
43 -0.050684 -0.011223 0.265176
12 -0.024315 0.818969 0.348007
144 0.782984 -0.739355 0.084038
160 -0.512669 0.135481 -0.216357
99 0.024804 -0.107038 0.371771
174 0.399845 -0.128411 -0.305977
63 -0.347591 -0.046933 -0.573460
177 -0.331880 -0.047979 -0.383010
47 0.041730 -0.080085 -0.261102
159 0.436907 -0.185162 -0.104609
175 -0.246869 0.239615 -0.362040
186 -0.349089 -0.343172 0.116697
64 -0.595951 -0.235473 0.120107
57 0.366571 -0.710267 -0.239408
42 0.366037 -0.120580 -0.499465
49 0.425093 -0.009406 0.377975
36 -0.094870 0.103506 -0.015188
148 -0.054041 -0.075152 -0.227510
21 -0.021122 -0.044128 0.128053
50 0.138789 -0.120118 0.236167
60 -0.039070 0.452038 -0.202016
200 0.053255 -0.089056 0.181416
17 0.350329 0.431728 0.255878
109 0.217302 -0.467731 0.175053
196 -0.228445 0.142420 0.163731
22 0.143064 -0.615899 0.136028
147 -0.225693 -0.159328 -0.469631
41 -0.574627 -0.152595 0.424764
152 -0.366569 -0.111914 0.385429
106 0.003004 0.116194 0.004010
72 0.550718 -0.199657 -0.227764
100 0.155224 -0.420810 -0.051216
15 0.185931 0.089424 0.305738
140 0.020471 -0.185196 -0.193274
83 0.282684 -0.188536 0.202157
185 -0.001509 0.617770 0.065772
11 0.370895 -0.627185 -0.005553
107 0.278148 0.561411 -0.160378
84 0.223899 0.281426 -0.302367
10 0.027584 -0.228721 0.164192
53 0.767020 0.206630 0.222416
54 0.279703 -0.269571 -0.086471
48 -0.324081 -0.313588 0.003126
16 0.485864 0.181126 -0.047095
1 -0.104468 0.122920 -0.487083
114 -0.136212 -0.081724 -0.116509
124 -0.019832 -0.068718 -0.073853
113 -0.261642 0.309989 0.158970
108 -0.601040 -0.038275 0.172880
19 0.292232 0.238514 -0.253753
151 0.374609 -0.263731 -0.091445
168 0.063404 -0.562985 -0.167878
157 0.020233 0.091508 0.181063
179 0.027631 0.281612 0.495976
199 -0.184837 -0.334838 0.245443
35 0.648424 -0.253047 0.388225
123 -0.045504 0.263956 -0.264360
103 -0.104902 0.346102 -0.393031
170 -0.404444 0.039897 -0.199440
39 0.275118 0.003267 -0.374140
2 0.423976 0.281458 0.332414
130 -0.068381 0.214929 0.045656
59 0.264931 -0.229610 -0.231902
104 0.158973 0.166337 0.201115
180 0.217978 0.395121 0.289315
40 -0.264928 0.488004 -0.638810

Bonds

1 1 139 140
2 1 25 26
3 1 27 28
4 1 125 126
5 1 91 92
6 1 95 96
7 2 169 3
8 2 169 66
9 2 169 75
10 2 169 82
11 2 166 5
12 2 166 93
13 2 166 4
14 2 166 25
15 2 167 22
16 2 167 27
17 2 167 57
18 2 167 63
19 1 61 62
20 1 67 68
21 1 55 56
22 1 135 136
23 1 137 138
24 2 183 17
25 2 183 49
26 2 183 62
27 2 183 118
28 1 81 82
29 1 117 118
30 1 73 74
31 2 173 94
32 2 173 102
33 2 173 128
34 2 173 153
35 1 127 128
36 2 176 48
37 2 176 53
38 2 176 92
39 2 176 101
40 2 163 28
41 2 163 34
42 2 163 36
43 2 163 54
44 1 51 52
45 1 93 94
46 1 101 102
47 1 79 80
48 1 153 154
49 2 197 29
51 2 197 132
52 2 197 138
53 1 121 122
54 1 65 66
55 1 87 88
56 2 194 20
57 2 194 44
58 2 194 88
59 2 194 65
60 2 164 73
61 2 164 137
62 2 164 121
63 2 165 55
64 2 165 59
65 2 165 87
66 2 165 125
67 1 29 30
68 2 162 18
69 2 162 30
70 2 162 56
71 2 162 67
72 1 97 98
73 1 33 34
74 1 7 8
75 1 23 24
76 2 178 13
77 2 178 68
78 2 178 78
79 2 178 143
80 2 182 14
81 1 75 76
82 1 3 4
83 1 111 112
84 1 13 14
85 1 5 6
86 2 187 72
87 2 187 106
88 2 172 8
89 2 172 16
90 2 172 24
91 2 172 71
92 2 189 95
93 2 189 117
94 1 145 146
95 1 143 144
96 1 31 32
97 2 191 119
98 2 191 133
99 2 191 136
100 2 191 31
101 1 105 106
102 1 149 150
103 2 184 81
104 2 184 90
105 2 184 98
106 2 184 105
107 1 133 134
108 1 119 120
109 1 129 130
110 1 89 90
111 1 71 72
112 2 181 6
113 2 181 52
114 2 181 83
115 2 181 85
116 1 37 38
117 1 115 116
118 1 77 78
119 1 85 86
120 2 190 7
121 2 190 76
122 2 190 23
123 2 190 86
124 2 198 116
125 1 45 46
126 2 161 33
127 2 161 43
128 2 161 51
129 2 161 77
130 2 192 156
131 2 192 110
132 2 192 120
133 2 192 150
134 1 141 142
135 1 131 132
136 2 171 9
137 2 171 37
138 2 171 45
139 2 171 104
140 2 188 103
141 2 188 123
142 2 188 131
143 2 188 141
144 2 195 115
145 2 195 38
146 2 193 124
147 2 193 155
148 2 193 142
149 2 193 148
150 1 155 156
151 1 69 70
152 1 9 10
153 1 43 44
154 1 99 100
155 2 174 2
156 2 174 47
157 2 174 58
158 2 174 91
159 1 63 64
160 2 177 26
161 2 177 160
162 2 177 99
163 2 177 96
164 1 47 48
165 1 159 160
166 2 175 64
167 2 175 127
168 2 175 139
169 2 175 144
170 2 186 12
171 2 186 74
172 2 186 107
173 2 186 111
174 1 57 58
175 1 49 50
176 1 21 22
177 2 200 21
178 2 200 42
179 2 200 112
180 2 200 129
181 1 17 18
182 1 109 110
183 2 196 122
184 2 196 130
185 2 196 100
186 2 196 135
187 1 147 148
188 1 41 42
189 1 15 16
190 1 83 84
191 2 185 11
192 2 185 15
193 2 185 84
194 2 185 108
195 1 11 12
196 1 107 108
197 1 53 54
198 1 1 2
199 1 113 114
200 1 19 20
201 1 151 152
202 2 168 1
203 2 168 35
204 2 168 40
205 2 168 69
206 1 157 158
207 2 179 41
208 2 179 46
209 2 199 10
210 2 199 140
211 2 199 157
212 2 199 114
213 1 35 36
214 1 123 124
215 1 103 104
216 2 170 19
217 2 170 50
218 2 170 109
219 2 170 113
220 1 39 40
221 1 59 60
222 2 180 89
223 2 180 152
224 2 180 159

