ITEM: TIMESTEP
0
ITEM: NUMBER OF ATOMS
200
ITEM: BOX BOUNDS pp pp pp
9.7039153677996751e+01 1.0296084632200325e+02
9.7039153677996751e+01 1.0296084632200325e+02
9.7039153677996751e+01 1.0296084632200325e+02
ITEM: ATOMS id mol type x y z
1 1 1 102.811 99.8191 100.473
2 1 1 101.909 99.6119 101.231
3 2 1 100.91 98.4742 102.364
4 2 1 101.247 99.6476 102.087
5 3 1 100.186 99.9051 98.127
6 3 1 101.279 99.4644 98.1029
7 4 1 98.3119 99.7802 102.957
8 4 1 98.9785 98.9632 97.4794
9 5 1 98.9083 98.3901 101.61
10 5 1 97.764 98.5274 101.536
11 6 1 102.822 97.0965 102.068
12 6 1 102.078 97.4234 101.213
13 7 1 98.9746 97.8531 102.607
14 7 1 98.6739 102.672 102.443
15 8 1 101.692 100.563 101.752
16 8 1 102.498 101.292 101.435
17 9 1 101.193 100.882 102.666
18 9 1 101.622 101.702 101.936
19 10 1 100.991 100.688 100.989
20 10 1 101.397 100.94 99.8932
21 11 1 102.72 102.615 98.3423
22 11 1 97.9492 102.664 98.3234
23 12 1 101.794 98.7888 101.914
24 12 1 102.79 98.0784 101.732
25 13 1 98.7211 100.985 102.875
26 13 1 97.7886 100.474 102.312
27 14 1 98.0981 101.413 100.84
28 14 1 98.8715 101.689 100.014
29 15 1 102.668 97.4409 99.2246
30 15 1 102.935 102.722 100.214
31 16 1 100.237 101.907 101.086
32 16 1 99.0907 101.591 101.141
33 17 1 97.2429 98.4623 100.59
34 17 1 97.2419 97.3792 101.066
35 18 1 102.223 99.0322 100.032
36 18 1 101.923 98.2278 99.2005
37 19 1 97.6254 101.384 102.839
38 19 1 97.7186 102.351 102.151
39 20 1 102.481 98.1524 97.3598
40 20 1 101.324 97.963 97.301
41 21 1 99.8068 98.9134 98.1202
42 21 1 99.2397 97.9269 97.8185
43 22 1 98.3599 102.001 97.3282
44 22 1 99.168 101.267 97.9201
45 23 1 98.1733 98.3253 97.8387
46 23 1 97.3158 97.5591 97.8943
47 24 1 102.033 98.4729 100.944
48 24 1 101.115 97.8121 101.472
49 25 1 100.478 100.921 99.159
50 25 1 100.514 101.352 100.267
51 26 1 97.0592 98.463 99.4717
52 26 1 102.352 97.7638 100.202
53 27 1 102.219 97.6162 98.2841
54 27 1 102.386 97.1406 97.1347
55 28 1 98.2965 97.4625 100.782
56 28 1 98.4243 98.593 100.654
57 29 1 97.3633 102.15 101.107
58 29 1 102.426 101.663 100.422
59 30 1 99.8391 97.1666 102.38
60 30 1 99.0687 97.3131 101.567
61 31 1 102.012 100.052 99.6441
62 31 1 102.125 99.3599 98.6694
63 32 1 99.1982 100.118 102.432
64 32 1 98.4748 99.4547 101.744
65 33 1 100.371 97.752 97.7449
66 33 1 99.8154 98.4524 102.934
67 34 1 101.725 98.5181 98.0603
68 34 1 101.203 97.608 98.671
69 35 1 97.5625 101.332 101.781
70 35 1 97.9476 100.372 101.254
71 36 1 100.101 100.559 97.2508
72 36 1 99.5992 101.119 102.211
73 37 1 99.3574 101.896 102.948
74 37 1 98.5431 101.691 102.156
75 38 1 97.5256 99.4688 102.241
76 38 1 102.832 100.222 101.504
77 39 1 99.4061 102.926 97.3919
78 39 1 99.9112 102.053 97.9658
79 40 1 101.325 98.5712 100.209
80 40 1 100.331 98.1877 100.707
81 41 1 99.3519 102.497 100.745
82 41 1 100.192 97.1206 101.32
83 42 1 98.9271 102.334 98.1351
84 42 1 98.572 102.321 99.2447
85 43 1 100.419 99.1998 100.201
86 43 1 100.982 98.9105 101.226
87 44 1 100.471 99.8197 101.185
88 44 1 101.339 99.6371 100.366
89 45 1 100.685 98.8104 97.4934
90 45 1 99.8096 99.5475 97.1561
91 46 1 102.886 99.5073 99.3573
92 46 1 97.2757 99.666 98.26
93 47 1 98.9089 97.1203 99.9222
94 47 1 99.579 102.64 98.9697
95 48 1 98.3368 99.4681 98.1698
96 48 1 97.5656 99.0356 97.4145
97 49 1 97.7508 99.4258 100.986
98 49 1 97.9577 100.288 100.163
99 50 1 97.9368 99.9272 99.1414
100 50 1 98.9721 100.22 99.5765
101 51 1 97.3354 101.661 98.9012
102 51 1 102.307 101.214 99.4496
103 52 1 97.2205 100.88 100.729
104 52 1 97.1274 100.53 99.5627
105 53 1 99.9634 97.7528 98.7359
106 53 1 98.7994 97.3756 98.7367
107 54 1 100.01 97.2765 100.189
108 54 1 99.8574 102.105 99.8559
109 55 1 100.852 97.4312 102.427
110 55 1 101.977 97.8546 102.368
111 56 1 97.4537 100.702 98.5386
112 56 1 98.5825 100.49 98.5359
113 57 1 97.2113 100.036 97.1828
114 57 1 102.469 99.1594 97.6763
115 58 1 97.4334 102.589 97.2575
116 58 1 97.4109 97.8005 102.789
117 59 1 97.4616 101.734 97.9029
118 59 1 102.362 102.097 97.4929
119 60 1 97.8416 98.8557 98.8684
120 60 1 97.7539 99.1994 99.9879
121 61 1 100.2 100.268 102.163
122 61 1 100.641 101.268 101.822
123 62 1 101.168 102.616 101.284
124 62 1 102.311 102.336 101.386
125 63 1 98.3383 101.529 98.4832
126 63 1 98.0245 100.677 97.6665
127 64 1 102.812 100.887 97.6614
128 64 1 102.318 101.577 98.4445
129 65 1 99.2367 99.5657 98.6886
130 65 1 99.5651 100.62 98.6978
131 66 1 99.3418 97.8459 100.758
132 66 1 99.4001 98.9053 100.217
133 67 1 99.4327 99.9241 101.417
134 67 1 98.7696 100.786 101.72
135 68 1 97.544 102.636 99.2952
136 68 1 97.5844 97.6323 100.003
137 69 1 100.097 99.9063 99.2597
138 69 1 99.7145 99.9719 100.37
139 70 1 102.279 99.7717 102.283
140 70 1 101.631 99.0057 97.0418
141 71 1 101.824 101.198 97.5929
142 71 1 100.998 101.872 98.0264
143 72 1 100.514 102.819 98.3693
144 72 1 101.608 102.462 98.6848
145 73 1 99.4163 97.9913 99.6072
146 73 1 100.622 98.1025 99.644
147 74 1 99.8766 98.8579 99.2355
148 74 1 98.7258 99.1938 99.5173
149 75 1 100.294 99.2611 102.096
150 75 1 99.1963 99.0342 102.346
151 76 1 100.619 100.293 100.024
152 76 1 101.204 100.198 98.9409
153 77 1 101.441 101.197 98.7771
154 77 1 100.499 101.972 98.9597
155 78 1 101.92 102.587 100.45
156 78 1 100.759 102.373 100.323
157 79 1 101.45 101.956 99.6314
158 79 1 101.719 97.1788 99.5732
159 80 1 101.744 102.757 102.183
160 80 1 101.432 101.977 102.924
161 81 2 98.2014 98.5971 102.619
162 82 2 97.8122 97.7771 98.8217
163 83 2 101.153 97.5482 100.402
164 84 2 99.078 100.157 97.6892
165 85 2 101.272 99.1842 99.2886
166 86 2 98.3277 97.302 97.3958
167 87 2 102.813 99.1401 101.459
168 88 2 98.3526 102.481 101.351
169 89 2 98.4084 98.1424 99.6228
170 90 2 99.4277 101.601 98.9553
171 91 2 102.134 100.62 100.663
172 92 2 98.0658 102.463 100.32
173 93 2 99.5812 102.219 101.844
174 94 2 99.8186 100.847 101.09
175 95 2 100.739 98.5251 98.6584
176 96 2 102.872 98.477 98.4229
177 97 2 102.718 98.8044 102.514
178 98 2 100.921 99.7901 97.148
179 99 2 97.4413 101.677 99.9446
180 100 2 101.437 102.841 97.7112
181 101 2 102.646 102.02 102.395
182 102 2 98.8523 98.4915 98.6841
183 103 2 101.472 101.656 100.833
184 104 2 100.33 101.555 102.959
185 105 2 102.458 102.244 99.4221
186 106 2 100.642 102.912 99.4093
187 107 2 99.6287 100.935 99.8633
188 108 2 97.9873 97.5331 101.965
189 109 2 98.7156 99.5786 100.646
190 110 2 101.987 100.061 97.4541
191 111 2 98.2078 101.062 99.4132
192 112 2 100.635 102.241 102.124
193 113 2 102.581 100.882 102.497
194 114 2 102.361 100.407 98.6734
195 115 2 100.529 102.61 97.2155
196 116 2 100.337 101.102 98.1527
197 117 2 98.8636 100.651 100.632
198 118 2 101.171 100.487 97.9426
199 119 2 100.01 98.0493 101.853
200 120 2 99.7615 98.8917 101.275
ITEM: TIMESTEP
1000
ITEM: NUMBER OF ATOMS
200
ITEM: BOX BOUNDS pp pp pp
9.7009396677750075e+01 1.0299060332224992e+02
9.7039153677996751e+01 1.0296084632200325e+02
9.7039153677996751e+01 1.0296084632200325e+02
ITEM: ATOMS id mol type x y z
1 1 1 102.815 99.8365 100.441
2 1 1 101.942 99.6469 101.267
3 2 1 100.96 98.514 102.387
4 2 1 101.21 99.632 102.024
5 3 1 100.169 99.8926 98.1309
6 3 1 101.33 99.4529 98.0847
7 4 1 98.2995 99.7935 102.927
8 4 1 98.9239 98.881 97.4557
9 5 1 98.8849 98.3282 101.57
10 5 1 97.7434 98.5758 101.548
11 6 1 102.847 97.1848 102.169
12 6 1 102.138 97.4069 101.188
13 7 1 98.9258 97.9022 102.575
14 7 1 98.6452 102.687 102.389
15 8 1 101.721 100.535 101.833
16 8 1 102.476 101.291 101.451
17 9 1 101.146 100.865 102.72
18 9 1 101.634 101.668 101.92
19 10 1 100.973 100.625 101.028
20 10 1 101.411 100.925 99.8966
21 11 1 102.758 102.581 98.3256
22 11 1 97.9312 102.616 98.3611
23 12 1 101.852 98.8137 101.928
24 12 1 102.791 98.1092 101.662
25 13 1 98.6861 100.961 102.901
26 13 1 97.7437 100.493 102.327
27 14 1 98.1367 101.376 100.886
28 14 1 98.855 101.606 100.057
29 15 1 102.788 97.4345 99.2099
30 15 1 102.924 102.736 100.256
31 16 1 100.221 101.975 101.079
32 16 1 99.1252 101.623 101.262
33 17 1 97.1524 98.4473 100.644
34 17 1 97.2579 97.3108 101.089
35 18 1 102.259 99.0358 100.018
36 18 1 101.955 98.2508 99.1758
37 19 1 97.5618 101.407 102.847
38 19 1 97.6799 102.374 102.161
39 20 1 102.494 98.1798 97.4129
40 20 1 101.353 98.0002 97.3433
41 21 1 99.8203 98.861 98.1025
42 21 1 99.2065 97.8898 97.8374
43 22 1 98.3318 101.98 97.3574
44 22 1 99.2063 101.243 97.8677
45 23 1 98.1378 98.2839 97.8303
46 23 1 97.2429 97.5264 97.9465
47 24 1 102.054 98.4747 100.943
48 24 1 101.186 97.8103 101.48
49 25 1 100.457 100.918 99.1924
50 25 1 100.5 101.293 100.32
51 26 1 97.1007 98.4363 99.5491
52 26 1 102.348 97.773 100.169
53 27 1 102.224 97.5539 98.3019
54 27 1 102.384 97.1909 97.1476
55 28 1 98.3205 97.4671 100.797
56 28 1 98.3761 98.5765 100.647
57 29 1 97.3379 102.11 101.079
58 29 1 102.415 101.675 100.426
59 30 1 99.8462 97.2924 102.429
60 30 1 99.0747 97.303 101.557
61 31 1 102.086 100.096 99.6579
62 31 1 102.147 99.3986 98.7009
63 32 1 99.2013 100.136 102.451
64 32 1 98.4058 99.5216 101.741
65 33 1 100.373 97.6538 97.6724
66 33 1 99.8089 98.4232 102.925
67 34 1 101.838 98.5337 98.1602
68 34 1 101.216 97.6238 98.6779
69 35 1 97.504 101.328 101.776
70 35 1 97.964 100.39 101.276
71 36 1 100.105 100.523 97.2268
72 36 1 99.6127 101.155 102.215
73 37 1 99.3176 101.912 102.964
74 37 1 98.4894 101.662 102.176
75 38 1 97.48 99.5097 102.227
76 38 1 102.859 100.295 101.559
77 39 1 99.3943 102.923 97.392
78 39 1 99.9312 102.02 97.9634
79 40 1 101.361 98.5302 100.21
80 40 1 100.372 98.1356 100.684
81 41 1 99.3365 102.519 100.71
82 41 1 100.21 97.1486 101.258
83 42 1 98.918 102.29 98.1228
84 42 1 98.5317 102.217 99.2193
85 43 1 100.443 99.1316 100.194
86 43 1 101.009 98.8428 101.209
87 44 1 100.427 99.7481 101.162
88 44 1 101.373 99.6009 100.421
89 45 1 100.686 98.8076 97.4483
90 45 1 99.7751 99.4772 97.1558
91 46 1 102.921 99.5312 99.3648
92 46 1 97.2232 99.7282 98.2649
93 47 1 98.9156 97.0433 99.871
94 47 1 99.6221 102.641 98.9138
95 48 1 98.297 99.4525 98.1551
96 48 1 97.5187 99.0481 97.4293
97 49 1 97.6424 99.4508 100.999
98 49 1 97.9612 100.303 100.172
99 50 1 97.8917 99.8875 99.1366
100 50 1 98.9393 100.217 99.6069
101 51 1 97.375 101.726 98.905
102 51 1 102.358 101.232 99.4429
103 52 1 97.175 100.896 100.738
104 52 1 97.1034 100.569 99.6196
105 53 1 99.9975 97.7754 98.7272
106 53 1 98.8201 97.3683 98.7789
107 54 1 100.011 97.26 100.171
108 54 1 99.8411 102.051 99.8403
109 55 1 100.901 97.465 102.42
110 55 1 101.978 97.8525 102.318
111 56 1 97.3918 100.75 98.5848
112 56 1 98.5345 100.447 98.5388
113 57 1 97.1809 100.006 97.1785
114 57 1 102.475 99.2127 97.693
115 58 1 97.3885 102.616 97.2976
116 58 1 97.4539 97.8852 102.877
117 59 1 97.3907 101.721 97.8814
118 59 1 102.364 102.09 97.4944
119 60 1 97.8587 98.8487 98.8774
120 60 1 97.7543 99.1732 99.9961
121 61 1 100.264 100.303 102.134
122 61 1 100.688 101.294 101.78
123 62 1 101.181 102.621 101.282
124 62 1 102.342 102.336 101.351
125 63 1 98.2897 101.51 98.3946
126 63 1 97.963 100.597 97.6516
127 64 1 102.82 100.824 97.6754
128 64 1 102.382 101.639 98.4624
129 65 1 99.2211 99.5573 98.6763
130 65 1 99.531 100.606 98.7256
131 66 1 99.2904 97.8647 100.671
132 66 1 99.4133 98.88 100.145
133 67 1 99.3978 99.9064 101.444
134 67 1 98.7589 100.774 101.764
135 68 1 97.5532 102.643 99.3542
136 68 1 97.5617 97.635 100.104
137 69 1 100.043 99.8857 99.2754
138 69 1 99.6826 99.927 100.389
139 70 1 102.331 99.7734 102.323
140 70 1 101.697 99.0256 97.0395
141 71 1 101.849 101.201 97.5813
142 71 1 101.02 101.873 97.9967
143 72 1 100.544 102.806 98.3469
144 72 1 101.636 102.44 98.6613
145 73 1 99.4482 97.9556 99.5789
146 73 1 100.608 98.1222 99.5864
147 74 1 99.8496 98.8646 99.1793
148 74 1 98.6817 99.203 99.4966
149 75 1 100.259 99.2306 102.146
150 75 1 99.1724 99.0613 102.288
151 76 1 100.626 100.222 100.05
152 76 1 101.195 100.214 98.9621
153 77 1 101.431 101.235 98.7473
154 77 1 100.499 101.955 98.9798
155 78 1 101.881 102.578 100.407
156 78 1 100.736 102.379 100.271
157 79 1 101.488 101.946 99.6089
158 79 1 101.83 97.1905 99.5137
159 80 1 101.778 102.771 102.148
160 80 1 101.415 101.997 102.926
161 81 2 98.177 98.6572 102.633
162 82 2 97.8152 97.7569 98.8302
163 83 2 101.203 97.4886 100.364
164 84 2 99.0952 100.112 97.6993
165 85 2 101.278 99.24 99.3117
166 86 2 98.2821 97.2575 97.3538
167 87 2 102.803 99.1642 101.501
168 88 2 98.3248 102.496 101.366
169 89 2 98.4308 98.1386 99.6065
170 90 2 99.4185 101.591 98.9631
171 91 2 102.107 100.639 100.68
172 92 2 98.0871 102.48 100.314
173 93 2 99.6617 102.321 101.894
174 94 2 99.8222 100.828 101.151
175 95 2 100.804 98.576 98.655
176 96 2 102.93 98.5402 98.4531
177 97 2 102.722 98.7675 102.507
178 98 2 100.922 99.8015 97.1055
179 99 2 97.4033 101.674 99.9419
180 100 2 101.498 102.821 97.7194
181 101 2 102.628 102.077 102.41
182 102 2 98.8509 98.4724 98.646
183 103 2 101.458 101.672 100.832
184 104 2 100.341 101.544 102.926
185 105 2 102.512 102.259 99.391
186 106 2 100.705 102.919 99.3899
187 107 2 99.6577 100.898 99.8529
188 108 2 97.9809 97.6158 101.958
189 109 2 98.6624 99.5587 100.69
190 110 2 101.959 100.06 97.4445
191 111 2 98.1794 101.043 99.394
192 112 2 100.685 102.303 102.136
193 113 2 102.593 100.932 102.504
194 114 2 102.354 100.442 98.6621
195 115 2 100.507 102.573 97.1906
196 116 2 100.261 101.059 98.1576
197 117 2 98.9179 100.662 100.637
198 118 2 101.114 100.53 97.8986
199 119 2 100.059 98.1044 101.807
200 120 2 99.7494 98.8751 101.156
ITEM: TIMESTEP
2000
ITEM: NUMBER OF ATOMS
200
ITEM: BOX BOUNDS pp pp pp
9.6979340614678989e+01 1.0302065938532101e+02
9.7039153677996751e+01 1.0296084632200325e+02
9.7039153677996751e+01 1.0296084632200325e+02
ITEM: ATOMS id mol type x y z
1 1 1 102.893 99.8891 100.474
2 1 1 102.028 99.6573 101.239
3 2 1 100.998 98.5732 102.375
4 2 1 101.23 99.6855 101.904
5 3 1 100.168 99.8567 98.184
6 3 1 101.315 99.4974 98.1232
7 4 1 98.2156 99.8017 103.041
8 4 1 98.977 98.9282 97.4916
9 5 1 98.9184 98.3696 101.529
10 5 1 97.7429 98.5728 101.63
11 6 1 102.858 97.2219 102.113
12 6 1 102.146 97.4847 101.213
13 7 1 98.9315 97.864 102.59
14 7 1 98.6319 102.629 102.491
15 8 1 101.784 100.563 101.801
16 8 1 102.519 101.338 101.389
17 9 1 101.157 100.844 102.688
18 9 1 101.647 101.654 101.914
19 10 1 101.025 100.656 101.042
20 10 1 101.454 100.929 99.8966
21 11 1 102.827 102.576 98.2974
22 11 1 97.9389 102.613 98.3398
23 12 1 101.899 98.8418 101.928
24 12 1 102.893 98.1805 101.676
25 13 1 98.7141 100.915 102.893
26 13 1 97.7335 100.491 102.343
27 14 1 98.0496 101.428 100.805
28 14 1 98.8578 101.648 100.037
29 15 1 102.8 97.4647 99.2185
30 15 1 102.927 102.755 100.245
31 16 1 100.28 101.952 101.112
32 16 1 99.1439 101.557 101.096
33 17 1 97.1122 98.4942 100.606
34 17 1 97.1729 97.392 101.074
35 18 1 102.262 99.0392 100.065
36 18 1 101.967 98.294 99.1933
37 19 1 97.494 101.456 102.797
38 19 1 97.5806 102.442 102.121
39 20 1 102.554 98.1427 97.4029
40 20 1 101.424 97.9423 97.274
41 21 1 99.848 98.8458 98.1158
42 21 1 99.197 97.9102 97.8372
43 22 1 98.3083 101.944 97.4011
44 22 1 99.1684 101.24 97.8951
45 23 1 98.2063 98.2583 97.8378
46 23 1 97.2271 97.5568 97.97
47 24 1 102.104 98.5181 100.982
48 24 1 101.162 97.8448 101.39
49 25 1 100.463 100.935 99.2068
50 25 1 100.565 101.304 100.332
51 26 1 97.0504 98.4379 99.499
52 26 1 102.34 97.8475 100.215
53 27 1 102.241 97.5479 98.2996
54 27 1 102.425 97.1466 97.1543
55 28 1 98.3206 97.4016 100.802
56 28 1 98.2861 98.5575 100.687
57 29 1 97.3009 102.146 101.084
58 29 1 102.457 101.72 100.399
59 30 1 99.8277 97.2324 102.381
60 30 1 98.9551 97.3234 101.634
61 31 1 101.997 100.049 99.6816
62 31 1 102.153 99.3189 98.7316
63 32 1 99.1842 100.032 102.467
64 32 1 98.468 99.4118 101.766
65 33 1 100.516 97.749 97.7489
66 33 1 99.9054 98.4021 102.959
67 34 1 101.814 98.4809 98.139
68 34 1 101.224 97.6015 98.6718
69 35 1 97.476 101.36 101.754
70 35 1 97.9324 100.397 101.242
71 36 1 100.127 100.54 97.2176
72 36 1 99.646 101.124 102.184
73 37 1 99.3245 101.888 102.959
74 37 1 98.3661 101.649 102.267
75 38 1 97.5106 99.4957 102.269
76 38 1 102.948 100.246 101.543
77 39 1 99.4015 102.943 97.3874
78 39 1 99.9287 102.056 97.9376
79 40 1 101.376 98.5043 100.205
80 40 1 100.344 98.1234 100.688
81 41 1 99.3288 102.523 100.73
82 41 1 100.207 97.1786 101.269
83 42 1 98.968 102.361 98.1639
84 42 1 98.4982 102.214 99.2057
85 43 1 100.452 99.1214 100.155
86 43 1 100.999 98.8576 101.18
87 44 1 100.459 99.7753 101.13
88 44 1 101.385 99.6053 100.466
89 45 1 100.806 98.81 97.5029
90 45 1 99.8453 99.4653 97.1999
91 46 1 102.933 99.5381 99.3266
92 46 1 97.2814 99.6979 98.2153
93 47 1 98.8394 97.0808 99.8905
94 47 1 99.6087 102.676 99.0304
95 48 1 98.3369 99.4524 98.1255
96 48 1 97.4746 98.9486 97.4677
97 49 1 97.6668 99.4275 100.973
98 49 1 97.9137 100.293 100.148
99 50 1 97.8934 99.8948 99.1082
100 50 1 98.9643 100.146 99.5841
101 51 1 97.3007 101.737 98.9159
102 51 1 102.352 101.265 99.4848
103 52 1 97.1532 100.878 100.721
104 52 1 97.0564 100.57 99.563
105 53 1 99.9937 97.7655 98.7074
106 53 1 98.8207 97.3521 98.8023
107 54 1 100.018 97.2481 100.142
108 54 1 99.8642 102.024 99.8714
109 55 1 100.873 97.4658 102.399
110 55 1 102.004 97.8889 102.282
111 56 1 97.3072 100.717 98.5199
112 56 1 98.4757 100.506 98.4599
113 57 1 97.1373 100.006 97.1772
114 57 1 102.519 99.2031 97.736
115 58 1 97.3389 102.602 97.2362
116 58 1 97.4182 97.8565 102.825
117 59 1 97.3502 101.725 97.874
118 59 1 102.362 102.092 97.4865
119 60 1 97.844 98.8252 98.8038
120 60 1 97.7174 99.2203 99.916
121 61 1 100.253 100.246 102.137
122 61 1 100.633 101.301 101.847
123 62 1 101.196 102.657 101.249
124 62 1 102.334 102.371 101.347
125 63 1 98.2913 101.54 98.4328
126 63 1 97.8769 100.752 97.5827
127 64 1 102.809 100.884 97.617
128 64 1 102.38 101.599 98.433
129 65 1 99.2277 99.5468 98.6346
130 65 1 99.4984 100.643 98.7381
131 66 1 99.3526 97.7733 100.719
132 66 1 99.3669 98.823 100.252
133 67 1 99.3728 99.8869 101.443
134 67 1 98.7554 100.82 101.732
135 68 1 97.5477 102.685 99.3883
136 68 1 97.5438 97.6569 100.097
137 69 1 100.086 99.9218 99.2453
138 69 1 99.7033 99.8771 100.341
139 70 1 102.316 99.8126 102.338
140 70 1 101.751 99.0298 97.0806
141 71 1 101.8 101.196 97.5829
142 71 1 100.982 101.891 98.0236
143 72 1 100.529 102.804 98.3794
144 72 1 101.613 102.406 98.6912
145 73 1 99.4292 97.9424 99.6061
146 73 1 100.594 98.1094 99.5843
147 74 1 99.8572 98.8535 99.229
148 74 1 98.7047 99.1363 99.479
149 75 1 100.282 99.2326 102.093
150 75 1 99.2217 98.9455 102.34
151 76 1 100.676 100.246 100.053
152 76 1 101.139 100.187 98.9341
153 77 1 101.437 101.213 98.7744
154 77 1 100.503 101.928 98.9592
155 78 1 101.913 102.679 100.392
156 78 1 100.785 102.336 100.306
157 79 1 101.545 101.964 99.6485
158 79 1 101.789 97.252 99.4684
159 80 1 101.765 102.788 102.166
160 80 1 101.414 101.98 102.94
161 81 2 98.2443 98.6457 102.696
162 82 2 97.8194 97.7639 98.8257
163 83 2 101.173 97.5069 100.377
164 84 2 99.1548 100.13 97.7506
165 85 2 101.288 99.2487 99.3274
166 86 2 98.2707 97.2663 97.3839
167 87 2 102.892 99.2009 101.511
168 88 2 98.3458 102.418 101.373
169 89 2 98.3858 98.1203 99.5993
170 90 2 99.4302 101.609 98.9977
171 91 2 102.159 100.689 100.669
172 92 2 98.0182 102.45 100.275
173 93 2 99.5184 102.263 101.846
174 94 2 99.8356 100.764 101.101
175 95 2 100.786 98.5654 98.6597
176 96 2 102.942 98.5041 98.4616
177 97 2 102.749 98.8388 102.547
178 98 2 100.964 99.7609 97.0186
179 99 2 97.3342 101.667 99.9295
180 100 2 101.457 102.833 97.7425
181 101 2 102.628 102.096 102.392
182 102 2 98.8688 98.4728 98.6768
183 103 2 101.477 101.668 100.842
184 104 2 100.345 101.566 102.935
185 105 2 102.518 102.352 99.3879
186 106 2 100.68 102.87 99.4075
187 107 2 99.6735 100.869 99.9186
188 108 2 97.9357 97.5619 101.966
189 109 2 98.658 99.5179 100.598
190 110 2 101.98 100.045 97.4723
191 111 2 98.168 101.032 99.3685
192 112 2 100.648 102.343 102.132
193 113 2 102.62 100.92 102.482
194 114 2 102.316 100.389 98.688
195 115 2 100.538 102.628 97.203
196 116 2 100.252 101.066 98.1341
197 117 2 98.8493 100.604 100.62
198 118 2 101.07 100.503 97.8915
199 119 2 100.061 98.1161 101.855
200 120 2 99.7809 98.8343 101.207
ITEM: TIMESTEP
3000
ITEM: NUMBER OF ATOMS
200
ITEM: BOX BOUNDS pp pp pp
9.6948982483152150e+01 1.0305101751684785e+02
9.7039153677996751e+01 1.0296084632200325e+02
9.7039153677996751e+01 1.0296084632200325e+02
ITEM: ATOMS id mol type x y z
1 1 1 102.883 99.7805 100.44
2 1 1 101.992 99.6412 101.249
3 2 1 100.94 98.4963 102.377
4 2 1 101.197 99.6571 101.977
5 3 1 100.173 99.8928 98.1779
6 3 1 101.285 99.4467 98.071
7 4 1 98.1684 99.7778 103.069
8 4 1 98.8983 98.8758 97.4283
9 5 1 98.8794 98.4216 101.392
10 5 1 97.6956 98.624 101.545
11 6 1 102.919 97.2509 102.156
12 6 1 102.131 97.429 101.203
13 7 1 98.8849 97.8953 102.63
14 7 1 98.5584 102.687 102.467
15 8 1 101.693 100.584 101.802
16 8 1 102.54 101.343 101.447
17 9 1 101.167 100.895 102.714
18 9 1 101.641 101.723 101.913
19 10 1 101.023 100.662 100.96
20 10 1 101.49 100.908 99.8881
21 11 1 102.833 102.582 98.3065
22 11 1 97.9144 102.587 98.3722
23 12 1 101.859 98.8279 101.908
24 12 1 102.867 98.1505 101.663
25 13 1 98.751 100.899 102.917
26 13 1 97.6982 100.538 102.446
27 14 1 98.0616 101.389 100.941
28 14 1 98.8701 101.578 100.122
29 15 1 102.875 97.4634 99.2363
30 15 1 102.995 102.769 100.231
31 16 1 100.212 101.961 101.091
32 16 1 99.0885 101.644 101.209
33 17 1 97.0738 98.484 100.652
34 17 1 97.1747 97.3705 101.08
35 18 1 102.31 99.0284 99.9162
36 18 1 102.029 98.2756 99.1091
37 19 1 97.4393 101.488 102.859
38 19 1 97.5348 102.421 102.163
39 20 1 102.533 98.2043 97.4004
40 20 1 101.417 97.9724 97.2796
41 21 1 99.7839 98.8352 98.0806
42 21 1 99.2224 97.8643 97.8119
43 22 1 98.3022 101.931 97.4171
44 22 1 99.1635 101.235 97.9184
45 23 1 98.172 98.2342 97.7692
46 23 1 97.1927 97.5694 97.9422
47 24 1 102.13 98.4868 100.933
48 24 1 101.179 97.8926 101.458
49 25 1 100.453 100.893 99.1568
50 25 1 100.596 101.312 100.27
51 26 1 97.0834 98.47 99.4842
52 26 1 102.429 97.817 100.152
53 27 1 102.276 97.5447 98.3165
54 27 1 102.388 97.1764 97.1676
55 28 1 98.3327 97.4725 100.84
56 28 1 98.1501 98.6035 100.605
57 29 1 97.2592 102.157 101.086
58 29 1 102.465 101.719 100.438
59 30 1 99.8877 97.3073 102.365
60 30 1 98.9545 97.357 101.675
61 31 1 102.163 100.122 99.6149
62 31 1 102.098 99.3741 98.691
63 32 1 99.1653 99.9848 102.469
64 32 1 98.4499 99.4352 101.722
65 33 1 100.498 97.6532 97.7621
66 33 1 99.8853 98.3265 102.921
67 34 1 101.786 98.5092 98.108
68 34 1 101.24 97.5888 98.6275
69 35 1 97.4192 101.334 101.811
70 35 1 97.9642 100.415 101.343
71 36 1 100.092 100.502 97.2186
72 36 1 99.6601 101.144 102.243
73 37 1 99.2926 101.85 102.962
74 37 1 98.4152 101.643 102.212
75 38 1 97.4647 99.5386 102.201
76 38 1 102.904 100.304 101.548
77 39 1 99.3362 102.903 97.2744
78 39 1 99.8683 102.072 97.9164
79 40 1 101.409 98.5607 100.22
80 40 1 100.405 98.155 100.713
81 41 1 99.2749 102.578 100.791
82 41 1 100.22 97.1255 101.339
83 42 1 98.9304 102.384 98.1778
84 42 1 98.474 102.148 99.2837
85 43 1 100.484 99.114 100.195
86 43 1 101.024 98.9032 101.201
87 44 1 100.457 99.7762 101.053
88 44 1 101.469 99.6877 100.348
89 45 1 100.732 98.7371 97.4882
90 45 1 99.8329 99.4119 97.1423
91 46 1 102.973 99.558 99.266
92 46 1 97.2728 99.7027 98.1571
93 47 1 98.845 97.0917 99.9022
94 47 1 99.6354 102.664 99.0555
95 48 1 98.3279 99.3878 98.1326
96 48 1 97.4276 98.9257 97.458
97 49 1 97.6495 99.5001 100.981
98 49 1 97.9605 100.437 100.295
99 50 1 97.883 99.9255 99.067
100 50 1 98.8832 100.17 99.6674
101 51 1 97.325 101.735 98.9196
102 51 1 102.468 101.242 99.4803
103 52 1 97.1233 100.889 100.778
104 52 1 97.1168 100.522 99.6244
105 53 1 99.9972 97.7348 98.7153
106 53 1 98.807 97.377 98.7942
107 54 1 100.07 97.2253 100.168
108 54 1 99.8449 102.022 99.9176
109 55 1 100.916 97.4574 102.451
110 55 1 102.027 97.8937 102.288
111 56 1 97.3333 100.724 98.5479
112 56 1 98.4911 100.468 98.4292
113 57 1 97.0211 99.9741 97.1439
114 57 1 102.511 99.1716 97.7128
115 58 1 97.3003 102.652 97.2399
116 58 1 97.4348 97.8976 102.834
117 59 1 97.3489 101.779 97.9163
118 59 1 102.375 102.056 97.4632
119 60 1 97.8136 98.8452 98.822
120 60 1 97.6967 99.3007 99.937
121 61 1 100.282 100.262 102.084
122 61 1 100.701 101.263 101.843
123 62 1 101.221 102.68 101.251
124 62 1 102.379 102.345 101.361
125 63 1 98.2989 101.537 98.4228
126 63 1 97.8884 100.736 97.6031
127 64 1 102.868 100.856 97.6249
128 64 1 102.458 101.6 98.4849
129 65 1 99.2354 99.5239 98.6613
130 65 1 99.4574 100.606 98.7489
131 66 1 99.3929 97.7601 100.775
132 66 1 99.3217 98.7482 100.227
133 67 1 99.4411 99.9501 101.41
134 67 1 98.7995 100.804 101.772
135 68 1 97.559 102.707 99.3784
136 68 1 97.5792 97.7107 100.112
137 69 1 100.066 99.8888 99.2384
138 69 1 99.6848 99.8704 100.342
139 70 1 102.309 99.7896 102.26
140 70 1 101.694 99.0018 97.0497
141 71 1 101.858 101.146 97.7014
142 71 1 100.956 101.81 98.0097
143 72 1 100.524 102.753 98.3791
144 72 1 101.644 102.373 98.6692
145 73 1 99.4209 97.8978 99.5562
146 73 1 100.577 98.1106 99.6322
147 74 1 99.8527 98.8349 99.2622
148 74 1 98.6832 99.1378 99.47
149 75 1 100.295 99.2353 102.075
150 75 1 99.2268 98.8781 102.276
151 76 1 100.661 100.24 100.051
152 76 1 101.244 100.208 98.9658
153 77 1 101.463 101.208 98.7959
154 77 1 100.526 101.917 99.0707
155 78 1 101.948 102.643 100.425
156 78 1 100.802 102.376 100.279
157 79 1 101.549 101.92 99.6715
158 79 1 101.897 97.1375 99.465
159 80 1 101.786 102.813 102.193
160 80 1 101.433 101.985 102.925
161 81 2 98.166 98.66 102.604
162 82 2 97.8287 97.7535 98.7953
163 83 2 101.231 97.5141 100.272
164 84 2 99.1341 100.034 97.7313
165 85 2 101.261 99.191 99.2942
166 86 2 98.2983 97.2348 97.4552
167 87 2 102.884 99.2266 101.48
168 88 2 98.2618 102.451 101.393
169 89 2 98.3756 98.1307 99.5928
170 90 2 99.4322 101.61 99.0033
171 91 2 102.193 100.664 100.675
172 92 2 97.987 102.476 100.323
173 93 2 99.5605 102.294 101.899
174 94 2 99.8952 100.87 101.094
175 95 2 100.742 98.5367 98.6318
176 96 2 102.984 98.5791 98.4247
177 97 2 102.773 98.8167 102.516
178 98 2 100.925 99.7506 97.06
179 99 2 97.3669 101.662 99.9464
180 100 2 101.466 102.772 97.7095
181 101 2 102.627 102.085 102.393
182 102 2 98.8365 98.4474 98.6413
183 103 2 101.502 101.678 100.848
184 104 2 100.325 101.525 103.029
185 105 2 102.578 102.297 99.4197
186 106 2 100.732 102.933 99.3614
187 107 2 99.6634 100.852 99.8918
188 108 2 97.9203 97.674 101.969
189 109 2 98.6353 99.5387 100.64
190 110 2 101.971 100.012 97.4427
191 111 2 98.1701 101.049 99.4172
192 112 2 100.696 102.296 102.142
193 113 2 102.641 100.905 102.49
194 114 2 102.377 100.433 98.5952
195 115 2 100.53 102.611 97.2121
196 116 2 100.186 101.122 98.1745
197 117 2 98.9087 100.64 100.698
198 118 2 101.028 100.503 97.8956
199 119 2 100.015 98.154 101.782
200 120 2 99.8048 98.9007 101.14
ITEM: TIMESTEP
4000
ITEM: NUMBER OF ATOMS
200
ITEM: BOX BOUNDS pp pp pp
9.6918319247331112e+01 1.0308168075266889e+02
9.7039153677996751e+01 1.0296084632200325e+02
9.7039153677996751e+01 1.0296084632200325e+02
ITEM: ATOMS id mol type x y z
1 1 1 103.001 99.8599 100.458
2 1 1 102.09 99.6994 101.273
3 2 1 101.003 98.5187 102.33
4 2 1 101.263 99.6688 101.923
5 3 1 100.2 99.8646 98.1408
6 3 1 101.326 99.4645 98.1192
7 4 1 98.261 99.8026 102.983
8 4 1 98.9552 98.8667 97.4177
9 5 1 98.906 98.2854 101.666
10 5 1 97.7655 98.6139 101.551
11 6 1 102.894 97.1676 102.068
12 6 1 102.2 97.5227 101.17
13 7 1 98.8946 97.7999 102.672
14 7 1 98.5869 102.625 102.452
15 8 1 101.771 100.608 101.883
16 8 1 102.533 101.36 101.472
17 9 1 101.142 100.922 102.684
18 9 1 101.642 101.742 101.902
19 10 1 101.05 100.603 101.03
20 10 1 101.447 100.909 99.868
21 11 1 102.843 102.585 98.2787
22 11 1 97.8445 102.596 98.3245
23 12 1 101.931 98.811 101.895
24 12 1 102.969 98.1317 101.649
25 13 1 98.6521 100.864 102.931
26 13 1 97.6611 100.501 102.344
27 14 1 98.0086 101.441 100.84
28 14 1 98.8563 101.659 100.076
29 15 1 102.866 97.4521 99.2104
30 15 1 103.006 102.739 100.229
31 16 1 100.144 101.996 101.066
32 16 1 99.0175 101.601 101.246
33 17 1 97.0628 98.459 100.635
34 17 1 97.2148 97.323 101.05
35 18 1 102.342 99.0443 99.9792
36 18 1 101.953 98.283 99.1207
37 19 1 97.4706 101.407 102.833
38 19 1 97.5479 102.389 102.157
39 20 1 102.597 98.1482 97.4198
40 20 1 101.434 97.978 97.3035
41 21 1 99.8047 98.7905 98.0856
42 21 1 99.1787 97.8346 97.8282
43 22 1 98.2701 102.002 97.3794
44 22 1 99.1016 101.302 97.9467
45 23 1 98.1554 98.267 97.8488
46 23 1 97.1852 97.571 97.9211
47 24 1 102.159 98.54 100.95
48 24 1 101.217 97.8748 101.428
49 25 1 100.439 100.92 99.1909
50 25 1 100.59 101.279 100.349
51 26 1 97.0138 98.4843 99.5361
52 26 1 102.407 97.8047 100.148
53 27 1 102.228 97.5283 98.2215
54 27 1 102.377 97.1172 97.1436
55 28 1 98.2798 97.4131 100.801
56 28 1 98.4445 98.5949 100.687
57 29 1 97.1818 102.12 101.108
58 29 1 102.498 101.67 100.432
59 30 1 99.8185 97.2865 102.394
60 30 1 98.9405 97.2486 101.613
61 31 1 102.143 100.085 99.7219
62 31 1 102.177 99.3509 98.7906
63 32 1 99.2769 100.095 102.432
64 32 1 98.4004 99.5474 101.799
65 33 1 100.487 97.7596 97.7698
66 33 1 99.8551 98.3692 102.917
67 34 1 101.86 98.5332 98.1289
68 34 1 101.251 97.5572 98.627
69 35 1 97.3643 101.33 101.774
70 35 1 97.9566 100.393 101.276
71 36 1 100.179 100.522 97.2671
72 36 1 99.6923 101.084 102.21
73 37 1 99.2501 101.788 102.953
74 37 1 98.3448 101.628 102.209
75 38 1 97.454 99.4392 102.27
76 38 1 103.053 100.237 101.576
77 39 1 99.3227 102.807 97.3265
78 39 1 99.9243 102.046 97.9717
79 40 1 101.405 98.532 100.245
80 40 1 100.408 98.1247 100.684
81 41 1 99.2928 102.642 100.77
82 41 1 100.224 97.1938 101.313
83 42 1 98.9177 102.348 98.1782
84 42 1 98.4667 102.196 99.2479
85 43 1 100.468 99.1218 100.183
86 43 1 100.97 98.8701 101.228
87 44 1 100.44 99.7254 101.098
88 44 1 101.442 99.6501 100.433
89 45 1 100.766 98.8438 97.4784
90 45 1 99.8462 99.4829 97.1784
91 46 1 103.049 99.6206 99.3777
92 46 1 97.278 99.6578 98.258
93 47 1 98.8131 97.1068 99.8794
94 47 1 99.6277 102.713 99.0621
95 48 1 98.3312 99.3896 98.0899
96 48 1 97.4694 98.9998 97.4009
97 49 1 97.6627 99.4576 100.956
98 49 1 97.8711 100.351 100.197