ITEM: TIMESTEP
0
ITEM: NUMBER OF ATOMS
200
ITEM: BOX BOUNDS pp pp pp
9.7039153677996751e+01 1.0296084632200325e+02
9.7039153677996751e+01 1.0296084632200325e+02
9.7039153677996751e+01 1.0296084632200325e+02
ITEM: ATOMS id mol type x y z
1 1 1 102.811 99.8191 100.473
2 1 1 101.909 99.6119 101.231
3 2 1 100.91 98.4742 102.364
4 2 1 101.247 99.6476 102.087
5 3 1 100.186 99.9051 98.127
6 3 1 101.279 99.4644 98.1029
7 4 1 98.3119 99.7802 102.957
8 4 1 98.9785 98.9632 97.4794
9 5 1 98.9083 98.3901 101.61
10 5 1 97.764 98.5274 101.536
11 6 1 102.822 97.0965 102.068
12 6 1 102.078 97.4234 101.213
13 7 1 98.9746 97.8531 102.607
14 7 1 98.6739 102.672 102.443
15 8 1 101.692 100.563 101.752
16 8 1 102.498 101.292 101.435
17 9 1 101.193 100.882 102.666
18 9 1 101.622 101.702 101.936
19 10 1 100.991 100.688 100.989
20 10 1 101.397 100.94 99.8932
21 11 1 102.72 102.615 98.3423
22 11 1 97.9492 102.664 98.3234
23 12 1 101.794 98.7888 101.914
24 12 1 102.79 98.0784 101.732
25 13 1 98.7211 100.985 102.875
26 13 1 97.7886 100.474 102.312
27 14 1 98.0981 101.413 100.84
28 14 1 98.8715 101.689 100.014
29 15 1 102.668 97.4409 99.2246
30 15 1 102.935 102.722 100.214
31 16 1 100.237 101.907 101.086
32 16 1 99.0907 101.591 101.141
33 17 1 97.2429 98.4623 100.59
34 17 1 97.2419 97.3792 101.066
35 18 1 102.223 99.0322 100.032
36 18 1 101.923 98.2278 99.2005
37 19 1 97.6254 101.384 102.839
38 19 1 97.7186 102.351 102.151
39 20 1 102.481 98.1524 97.3598
40 20 1 101.324 97.963 97.301
41 21 1 99.8068 98.9134 98.1202
42 21 1 99.2397 97.9269 97.8185
43 22 1 98.3599 102.001 97.3282
44 22 1 99.168 101.267 97.9201
45 23 1 98.1733 98.3253 97.8387
46 23 1 97.3158 97.5591 97.8943
47 24 1 102.033 98.4729 100.944
48 24 1 101.115 97.8121 101.472
49 25 1 100.478 100.921 99.159
50 25 1 100.514 101.352 100.267
51 26 1 97.0592 98.463 99.4717
52 26 1 102.352 97.7638 100.202
53 27 1 102.219 97.6162 98.2841
54 27 1 102.386 97.1406 97.1347
55 28 1 98.2965 97.4625 100.782
56 28 1 98.4243 98.593 100.654
57 29 1 97.3633 102.15 101.107
58 29 1 102.426 101.663 100.422
59 30 1 99.8391 97.1666 102.38
60 30 1 99.0687 97.3131 101.567
61 31 1 102.012 100.052 99.6441
62 31 1 102.125 99.3599 98.6694
63 32 1 99.1982 100.118 102.432
64 32 1 98.4748 99.4547 101.744
65 33 1 100.371 97.752 97.7449
66 33 1 99.8154 98.4524 102.934
67 34 1 101.725 98.5181 98.0603
68 34 1 101.203 97.608 98.671
69 35 1 97.5625 101.332 101.781
70 35 1 97.9476 100.372 101.254
71 36 1 100.101 100.559 97.2508
72 36 1 99.5992 101.119 102.211
73 37 1 99.3574 101.896 102.948
74 37 1 98.5431 101.691 102.156
75 38 1 97.5256 99.4688 102.241
76 38 1 102.832 100.222 101.504
77 39 1 99.4061 102.926 97.3919
78 39 1 99.9112 102.053 97.9658
79 40 1 101.325 98.5712 100.209
80 40 1 100.331 98.1877 100.707
81 41 1 99.3519 102.497 100.745
82 41 1 100.192 97.1206 101.32
83 42 1 98.9271 102.334 98.1351
84 42 1 98.572 102.321 99.2447
85 43 1 100.419 99.1998 100.201
86 43 1 100.982 98.9105 101.226
87 44 1 100.471 99.8197 101.185
88 44 1 101.339 99.6371 100.366
89 45 1 100.685 98.8104 97.4934
90 45 1 99.8096 99.5475 97.1561
91 46 1 102.886 99.5073 99.3573
92 46 1 97.2757 99.666 98.26
93 47 1 98.9089 97.1203 99.9222
94 47 1 99.579 102.64 98.9697
95 48 1 98.3368 99.4681 98.1698
96 48 1 97.5656 99.0356 97.4145
97 49 1 97.7508 99.4258 100.986
98 49 1 97.9577 100.288 100.163
99 50 1 97.9368 99.9272 99.1414
100 50 1 98.9721 100.22 99.5765
101 51 1 97.3354 101.661 98.9012
102 51 1 102.307 101.214 99.4496
103 52 1 97.2205 100.88 100.729
104 52 1 97.1274 100.53 99.5627
105 53 1 99.9634 97.7528 98.7359
106 53 1 98.7994 97.3756 98.7367
107 54 1 100.01 97.2765 100.189
108 54 1 99.8574 102.105 99.8559
109 55 1 100.852 97.4312 102.427
110 55 1 101.977 97.8546 102.368
111 56 1 97.4537 100.702 98.5386
112 56 1 98.5825 100.49 98.5359
113 57 1 97.2113 100.036 97.1828
114 57 1 102.469 99.1594 97.6763
115 58 1 97.4334 102.589 97.2575
116 58 1 97.4109 97.8005 102.789
117 59 1 97.4616 101.734 97.9029
118 59 1 102.362 102.097 97.4929
119 60 1 97.8416 98.8557 98.8684
120 60 1 97.7539 99.1994 99.9879
121 61 1 100.2 100.268 102.163
122 61 1 100.641 101.268 101.822
123 62 1 101.168 102.616 101.284
124 62 1 102.311 102.336 101.386
125 63 1 98.3383 101.529 98.4832
126 63 1 98.0245 100.677 97.6665
127 64 1 102.812 100.887 97.6614
128 64 1 102.318 101.577 98.4445
129 65 1 99.2367 99.5657 98.6886
130 65 1 99.5651 100.62 98.6978
131 66 1 99.3418 97.8459 100.758
132 66 1 99.4001 98.9053 100.217
133 67 1 99.4327 99.9241 101.417
134 67 1 98.7696 100.786 101.72
135 68 1 97.544 102.636 99.2952
136 68 1 97.5844 97.6323 100.003
137 69 1 100.097 99.9063 99.2597
138 69 1 99.7145 99.9719 100.37
139 70 1 102.279 99.7717 102.283
140 70 1 101.631 99.0057 97.0418
141 71 1 101.824 101.198 97.5929
142 71 1 100.998 101.872 98.0264
143 72 1 100.514 102.819 98.3693
144 72 1 101.608 102.462 98.6848
145 73 1 99.4163 97.9913 99.6072
146 73 1 100.622 98.1025 99.644
147 74 1 99.8766 98.8579 99.2355
148 74 1 98.7258 99.1938 99.5173
149 75 1 100.294 99.2611 102.096
150 75 1 99.1963 99.0342 102.346
151 76 1 100.619 100.293 100.024
152 76 1 101.204 100.198 98.9409
153 77 1 101.441 101.197 98.7771
154 77 1 100.499 101.972 98.9597
155 78 1 101.92 102.587 100.45
156 78 1 100.759 102.373 100.323
157 79 1 101.45 101.956 99.6314
158 79 1 101.719 97.1788 99.5732
159 80 1 101.744 102.757 102.183
160 80 1 101.432 101.977 102.924
161 81 2 98.2014 98.5971 102.619
162 82 2 97.8122 97.7771 98.8217
163 83 2 101.153 97.5482 100.402
164 84 2 99.078 100.157 97.6892
165 85 2 101.272 99.1842 99.2886
166 86 2 98.3277 97.302 97.3958
167 87 2 102.813 99.1401 101.459
168 88 2 98.3526 102.481 101.351
169 89 2 98.4084 98.1424 99.6228
170 90 2 99.4277 101.601 98.9553
171 91 2 102.134 100.62 100.663
172 92 2 98.0658 102.463 100.32
173 93 2 99.5812 102.219 101.844
174 94 2 99.8186 100.847 101.09
175 95 2 100.739 98.5251 98.6584
176 96 2 102.872 98.477 98.4229
177 97 2 102.718 98.8044 102.514
178 98 2 100.921 99.7901 97.148
179 99 2 97.4413 101.677 99.9446
180 100 2 101.437 102.841 97.7112
181 101 2 102.646 102.02 102.395
182 102 2 98.8523 98.4915 98.6841
183 103 2 101.472 101.656 100.833
184 104 2 100.33 101.555 102.959
185 105 2 102.458 102.244 99.4221
186 106 2 100.642 102.912 99.4093
187 107 2 99.6287 100.935 99.8633
188 108 2 97.9873 97.5331 101.965
189 109 2 98.7156 99.5786 100.646
190 110 2 101.987 100.061 97.4541
191 111 2 98.2078 101.062 99.4132
192 112 2 100.635 102.241 102.124
193 113 2 102.581 100.882 102.497
194 114 2 102.361 100.407 98.6734
195 115 2 100.529 102.61 97.2155
196 116 2 100.337 101.102 98.1527
197 117 2 98.8636 100.651 100.632
198 118 2 101.171 100.487 97.9426
199 119 2 100.01 98.0493 101.853
200 120 2 99.7615 98.8917 101.275
ITEM: TIMESTEP
1000
ITEM: NUMBER OF ATOMS
200
ITEM: BOX BOUNDS pp pp pp
9.7009396677750075e+01 1.0299060332224992e+02
9.7039153677996751e+01 1.0296084632200325e+02
9.7039153677996751e+01 1.0296084632200325e+02
ITEM: ATOMS id mol type x y z
1 1 1 102.83 99.8607 100.452
2 1 1 101.937 99.6916 101.251
3 2 1 100.949 98.4962 102.383
4 2 1 101.206 99.6279 101.999
5 3 1 100.202 99.8842 98.1737
6 3 1 101.297 99.4812 98.0788
7 4 1 98.2808 99.7776 102.95
8 4 1 98.9532 98.9001 97.4371
9 5 1 98.8924 98.3747 101.58
10 5 1 97.7411 98.6284 101.549
11 6 1 102.813 97.2065 102.122
12 6 1 102.098 97.4343 101.191
13 7 1 98.9527 97.8928 102.656
14 7 1 98.657 102.705 102.475
15 8 1 101.723 100.539 101.816
16 8 1 102.509 101.309 101.506
17 9 1 101.109 100.849 102.68
18 9 1 101.627 101.667 101.935
19 10 1 101.052 100.569 100.972
20 10 1 101.418 100.946 99.871
21 11 1 102.796 102.578 98.345
22 11 1 97.9841 102.634 98.3899
23 12 1 101.831 98.7958 101.928
24 12 1 102.8 98.1151 101.647
25 13 1 98.7413 100.969 102.941
26 13 1 97.8135 100.51 102.359
27 14 1 98.1255 101.382 100.923
28 14 1 98.8322 101.616 100.062
29 15 1 102.764 97.4829 99.266
30 15 1 102.925 102.731 100.249
31 16 1 100.228 102.029 101.077
32 16 1 99.1259 101.612 101.19
33 17 1 97.1344 98.4833 100.643
34 17 1 97.2127 97.3203 101.088
35 18 1 102.22 99.0957 99.9932
36 18 1 101.965 98.2954 99.1724
37 19 1 97.595 101.463 102.85
38 19 1 97.6259 102.423 102.13
39 20 1 102.483 98.1478 97.3721
40 20 1 101.339 97.9665 97.364
41 21 1 99.8093 98.8967 98.071
42 21 1 99.2854 97.9097 97.8364
43 22 1 98.3584 102.012 97.3913
44 22 1 99.2132 101.231 97.9077
45 23 1 98.1413 98.2772 97.8063
46 23 1 97.2364 97.5165 97.9622
47 24 1 102.03 98.5124 100.956
48 24 1 101.203 97.8624 101.491
49 25 1 100.46 100.936 99.2194
50 25 1 100.544 101.293 100.371
51 26 1 97.025 98.5144 99.516
52 26 1 102.345 97.8099 100.196
53 27 1 102.211 97.554 98.3039
54 27 1 102.388 97.1354 97.1742
55 28 1 98.2719 97.4533 100.79
56 28 1 98.3155 98.5621 100.609
57 29 1 97.3752 102.075 101.055
58 29 1 102.441 101.665 100.407
59 30 1 99.8803 97.2499 102.393
60 30 1 99.0312 97.3357 101.568
61 31 1 101.955 100.079 99.6388
62 31 1 102.138 99.3695 98.6801
63 32 1 99.2121 100.128 102.434
64 32 1 98.4154 99.5152 101.732
65 33 1 100.314 97.6259 97.6354
66 33 1 99.8038 98.4341 102.922
67 34 1 101.783 98.4982 98.1369
68 34 1 101.184 97.6175 98.6428
69 35 1 97.5427 101.374 101.791
70 35 1 97.994 100.373 101.284
71 36 1 100.11 100.525 97.2372
72 36 1 99.6438 101.154 102.257
73 37 1 99.3561 101.934 102.999
74 37 1 98.491 101.719 102.24
75 38 1 97.4981 99.5056 102.211
76 38 1 102.873 100.273 101.548
77 39 1 99.3996 102.921 97.4104
78 39 1 99.9457 102.021 97.9878
79 40 1 101.381 98.4824 100.132
80 40 1 100.348 98.1518 100.665
81 41 1 99.3223 102.628 100.747
82 41 1 100.233 97.1666 101.327
83 42 1 99.006 102.344 98.1807
84 42 1 98.4864 102.178 99.2476
85 43 1 100.486 99.0622 100.106
86 43 1 100.941 98.8601 101.225
87 44 1 100.431 99.7409 101.193
88 44 1 101.352 99.5899 100.441
89 45 1 100.709 98.7726 97.5008
90 45 1 99.8101 99.5196 97.1768
91 46 1 102.893 99.5913 99.3592
92 46 1 97.1971 99.6906 98.2209
93 47 1 98.8667 97.0852 99.8188
94 47 1 99.6497 102.675 98.9757
95 48 1 98.3206 99.4402 98.1034
96 48 1 97.5071 99.0252 97.3953
97 49 1 97.6578 99.487 100.957
98 49 1 97.9835 100.329 100.207
99 50 1 97.8949 99.921 99.1372
100 50 1 98.9331 100.186 99.6084
101 51 1 97.3909 101.796 98.9069
102 51 1 102.375 101.234 99.4349
103 52 1 97.2145 100.926 100.753
104 52 1 97.1384 100.559 99.6242
105 53 1 100.013 97.742 98.6919
106 53 1 98.8278 97.4054 98.6969
107 54 1 100.01 97.2687 100.181
108 54 1 99.8635 102.048 99.9086
109 55 1 100.875 97.4352 102.463
110 55 1 101.985 97.8742 102.341
111 56 1 97.3742 100.757 98.6008
112 56 1 98.5353 100.477 98.5187
113 57 1 97.1126 100.012 97.1404
114 57 1 102.462 99.1925 97.6926
115 58 1 97.3937 102.56 97.2566
116 58 1 97.4117 97.8328 102.8
117 59 1 97.3869 101.683 97.9012
118 59 1 102.408 102.058 97.4652
119 60 1 97.8035 98.8655 98.8034
120 60 1 97.7473 99.2172 99.9448
121 61 1 100.278 100.254 102.129
122 61 1 100.674 101.27 101.762
123 62 1 101.225 102.609 101.308
124 62 1 102.369 102.338 101.344
125 63 1 98.3175 101.511 98.3533
126 63 1 97.9072 100.684 97.6461
127 64 1 102.807 100.818 97.7163
128 64 1 102.431 101.615 98.4444
129 65 1 99.2372 99.5642 98.6599
130 65 1 99.5371 100.62 98.7468
131 66 1 99.2557 97.8261 100.67
132 66 1 99.4067 98.8448 100.177
133 67 1 99.3631 99.8811 101.439
134 67 1 98.7759 100.811 101.76
135 68 1 97.5615 102.708 99.3451
136 68 1 97.5321 97.6839 100.077
137 69 1 100.049 99.8411 99.2715
138 69 1 99.7376 99.8819 100.394
139 70 1 102.298 99.7501 102.31
140 70 1 101.685 98.9413 97.0392
141 71 1 101.838 101.156 97.7078
142 71 1 101.016 101.909 98.0368
143 72 1 100.547 102.791 98.3459
144 72 1 101.654 102.444 98.646
145 73 1 99.4145 97.9133 99.5444
146 73 1 100.522 98.0973 99.5751
147 74 1 99.8121 98.8186 99.158
148 74 1 98.7042 99.1755 99.5147
149 75 1 100.254 99.2052 102.078
150 75 1 99.1756 99.0615 102.302
151 76 1 100.68 100.221 99.9893
152 76 1 101.154 100.231 98.866
153 77 1 101.454 101.288 98.7709
154 77 1 100.51 101.943 98.9953
155 78 1 101.903 102.597 100.406
156 78 1 100.806 102.335 100.275
157 79 1 101.513 101.947 99.619
158 79 1 101.783 97.2303 99.4606
159 80 1 101.733 102.789 102.193
160 80 1 101.464 101.907 102.926
161 81 2 98.2293 98.6624 102.61
162 82 2 97.7463 97.7827 98.8275
163 83 2 101.196 97.5074 100.412
164 84 2 99.1036 100.109 97.7141
165 85 2 101.272 99.2855 99.2777
166 86 2 98.3057 97.3 97.4223
167 87 2 102.807 99.2059 101.477
168 88 2 98.3501 102.477 101.366
169 89 2 98.3896 98.1167 99.5542
170 90 2 99.4499 101.608 99.0119
171 91 2 102.168 100.667 100.653
172 92 2 98.0289 102.48 100.293
173 93 2 99.5752 102.258 101.9
174 94 2 99.831 100.793 101.131
175 95 2 100.721 98.6289 98.6832
176 96 2 102.888 98.4709 98.4282
177 97 2 102.75 98.7816 102.499
178 98 2 100.946 99.7371 97.0791
179 99 2 97.446 101.66 99.9206
180 100 2 101.498 102.812 97.6774
181 101 2 102.629 102.084 102.363
182 102 2 98.8328 98.4674 98.6094
183 103 2 101.498 101.626 100.863
184 104 2 100.343 101.519 103.03
185 105 2 102.514 102.298 99.392
186 106 2 100.734 102.884 99.395
187 107 2 99.6612 100.865 99.9264
188 108 2 97.9684 97.6325 101.953
189 109 2 98.6902 99.501 100.663
190 110 2 101.94 100.04 97.4245
191 111 2 98.2111 101.077 99.396
192 112 2 100.639 102.278 102.136
193 113 2 102.643 100.895 102.535
194 114 2 102.326 100.439 98.6477
195 115 2 100.499 102.555 97.2254
196 116 2 100.322 101.053 98.2341
197 117 2 98.8821 100.609 100.678
198 118 2 101.085 100.509 97.8221
199 119 2 100.093 98.1154 101.833
200 120 2 99.7255 98.8526 101.178
ITEM: TIMESTEP
2000
ITEM: NUMBER OF ATOMS
200
ITEM: BOX BOUNDS pp pp pp
9.6979340614678989e+01 1.0302065938532101e+02
9.7039153677996751e+01 1.0296084632200325e+02
9.7039153677996751e+01 1.0296084632200325e+02
ITEM: ATOMS id mol type x y z
1 1 1 102.922 99.8163 100.435
2 1 1 102.038 99.6565 101.239
3 2 1 100.918 98.5584 102.397
4 2 1 101.246 99.6738 101.969
5 3 1 100.148 99.8957 98.1604
6 3 1 101.245 99.4579 98.136
7 4 1 98.2751 99.7574 102.96
8 4 1 98.975 98.9083 97.4979
9 5 1 98.9028 98.3305 101.568
10 5 1 97.7752 98.5688 101.603
11 6 1 102.914 97.1376 102.138
12 6 1 102.109 97.4459 101.279
13 7 1 98.963 97.876 102.578
14 7 1 98.6232 102.675 102.44
15 8 1 101.762 100.584 101.82
16 8 1 102.546 101.369 101.416
17 9 1 101.113 100.892 102.729
18 9 1 101.628 101.66 101.937
19 10 1 101.038 100.672 101.008
20 10 1 101.443 100.905 99.8996
21 11 1 102.806 102.609 98.2879
22 11 1 97.9416 102.595 98.331
23 12 1 101.874 98.7947 101.906
24 12 1 102.865 98.0906 101.722
25 13 1 98.7275 100.928 102.928
26 13 1 97.7683 100.512 102.375
27 14 1 98.1028 101.384 100.814
28 14 1 98.8805 101.7 100.032
29 15 1 102.756 97.443 99.2502
30 15 1 102.955 102.73 100.238
31 16 1 100.226 102.012 101.049
32 16 1 99.1355 101.589 101.046
33 17 1 97.1459 98.4562 100.595
34 17 1 97.2479 97.3533 101.095
35 18 1 102.266 99.0441 100
36 18 1 102.014 98.3156 99.165
37 19 1 97.4914 101.418 102.847
38 19 1 97.6248 102.376 102.14
39 20 1 102.52 98.1515 97.3853
40 20 1 101.384 97.9386 97.341
41 21 1 99.8613 98.8574 98.0903
42 21 1 99.2406 97.8949 97.8077
43 22 1 98.3131 101.999 97.3601
44 22 1 99.1724 101.291 97.8672
45 23 1 98.2105 98.267 97.8239
46 23 1 97.2642 97.6129 97.9044
47 24 1 102.103 98.514 100.97
48 24 1 101.203 97.8956 101.474
49 25 1 100.457 100.941 99.2008
50 25 1 100.52 101.321 100.317
51 26 1 97.0892 98.448 99.5018
52 26 1 102.341 97.8005 100.223
53 27 1 102.272 97.6173 98.2688
54 27 1 102.389 97.1138 97.1927
55 28 1 98.2984 97.4283 100.801
56 28 1 98.3518 98.5598 100.635
57 29 1 97.3381 102.161 101.048
58 29 1 102.467 101.726 100.399
59 30 1 99.8415 97.2516 102.378
60 30 1 99.0049 97.3022 101.582
61 31 1 102.11 100.077 99.6617
62 31 1 102.119 99.408 98.698
63 32 1 99.2104 100.075 102.424
64 32 1 98.4876 99.3832 101.743
65 33 1 100.438 97.8168 97.8476
66 33 1 99.8502 98.3945 102.958
67 34 1 101.749 98.5411 98.1192
68 34 1 101.273 97.5635 98.6581
69 35 1 97.4966 101.318 101.735
70 35 1 98.0334 100.294 101.288
71 36 1 100.12 100.545 97.2509
72 36 1 99.6592 101.139 102.218
73 37 1 99.3411 101.905 102.937
74 37 1 98.3993 101.635 102.226
75 38 1 97.553 99.4585 102.21
76 38 1 102.961 100.275 101.554
77 39 1 99.3526 102.908 97.3446
78 39 1 99.9249 102.091 97.9963
79 40 1 101.404 98.5023 100.218
80 40 1 100.38 98.1078 100.738
81 41 1 99.2702 102.583 100.679
82 41 1 100.135 97.1818 101.341
83 42 1 98.9145 102.363 98.1249
84 42 1 98.4536 102.15 99.1821
85 43 1 100.462 99.1247 100.187
86 43 1 101.022 98.8752 101.237
87 44 1 100.462 99.7732 101.116
88 44 1 101.404 99.5968 100.401
89 45 1 100.759 98.7792 97.5299
90 45 1 99.8332 99.464 97.1664
91 46 1 102.941 99.5151 99.3006
92 46 1 97.1869 99.7466 98.1656
93 47 1 98.7551 97.1252 99.7726
94 47 1 99.5674 102.668 98.9984
95 48 1 98.3078 99.4854 98.0818
96 48 1 97.4849 98.9554 97.4582
97 49 1 97.7066 99.3749 100.932
98 49 1 97.8619 100.313 100.195
99 50 1 97.8635 99.9028 99.117
100 50 1 98.9027 100.189 99.5878
101 51 1 97.3045 101.712 98.9446
102 51 1 102.349 101.246 99.4883
103 52 1 97.1714 100.863 100.735
104 52 1 97.0798 100.6 99.5795
105 53 1 99.9331 97.8063 98.7861
106 53 1 98.7819 97.3963 98.7379
107 54 1 100.003 97.2699 100.223
108 54 1 99.8806 102.071 99.8645
109 55 1 100.874 97.5058 102.444
110 55 1 102.052 97.8274 102.364
111 56 1 97.3778 100.714 98.5567
112 56 1 98.5438 100.48 98.4585
113 57 1 97.0579 99.9949 97.1156
114 57 1 102.488 99.1832 97.7006
115 58 1 97.3487 102.612 97.2683
116 58 1 97.4226 97.8542 102.806
117 59 1 97.3986 101.726 97.9112
118 59 1 102.394 102.01 97.5066
119 60 1 97.813 98.8504 98.7532
120 60 1 97.7196 99.1512 99.9207
121 61 1 100.284 100.297 102.079
122 61 1 100.646 101.341 101.814
123 62 1 101.178 102.615 101.292
124 62 1 102.347 102.375 101.37
125 63 1 98.2757 101.502 98.3758
126 63 1 97.8938 100.629 97.602
127 64 1 102.815 100.846 97.6797
128 64 1 102.384 101.613 98.4993
129 65 1 99.2237 99.5673 98.5956
130 65 1 99.5326 100.612 98.7344
131 66 1 99.3253 97.8466 100.732
132 66 1 99.4224 98.8814 100.206
133 67 1 99.3619 99.8917 101.37
134 67 1 98.8061 100.803 101.733
135 68 1 97.5044 102.643 99.3372
136 68 1 97.5244 97.6442 100.064
137 69 1 100.078 99.9207 99.2867
138 69 1 99.737 99.918 100.381
139 70 1 102.276 99.7729 102.3
140 70 1 101.734 98.9604 97.0433
141 71 1 101.83 101.154 97.618
142 71 1 100.977 101.84 97.9824
143 72 1 100.47 102.861 98.3699
144 72 1 101.554 102.391 98.7212
145 73 1 99.3617 97.9545 99.6437
146 73 1 100.529 98.145 99.6663
147 74 1 99.8409 98.8525 99.2119
148 74 1 98.7127 99.1485 99.4689
149 75 1 100.232 99.2659 102.074
150 75 1 99.1977 98.9438 102.359
151 76 1 100.67 100.277 100.085
152 76 1 101.248 100.225 99.0201
153 77 1 101.467 101.258 98.8112
154 77 1 100.535 101.961 98.9713
155 78 1 101.91 102.635 100.433
156 78 1 100.787 102.35 100.258
157 79 1 101.55 101.941 99.6742
158 79 1 101.759 97.2115 99.5298
159 80 1 101.746 102.769 102.206
160 80 1 101.419 101.949 102.943
161 81 2 98.2121 98.6119 102.653
162 82 2 97.7732 97.7371 98.7955
163 83 2 101.167 97.546 100.456
164 84 2 99.1274 100.061 97.6913
165 85 2 101.256 99.2045 99.3066
166 86 2 98.3143 97.2606 97.3982
167 87 2 102.899 99.1785 101.479
168 88 2 98.3767 102.414 101.396
169 89 2 98.3337 98.1817 99.5785
170 90 2 99.4346 101.617 98.9827
171 91 2 102.184 100.681 100.688
172 92 2 98.0173 102.461 100.265
173 93 2 99.5428 102.261 101.82
174 94 2 99.8861 100.79 101.138
175 95 2 100.778 98.5133 98.6821
176 96 2 102.911 98.5499 98.4231
177 97 2 102.755 98.8089 102.506
178 98 2 100.914 99.7471 97.0472
179 99 2 97.3866 101.669 99.9569
180 100 2 101.503 102.774 97.7073
181 101 2 102.626 102.08 102.415
182 102 2 98.9198 98.4721 98.6198
183 103 2 101.508 101.666 100.847
184 104 2 100.326 101.584 102.958
185 105 2 102.524 102.331 99.3838
186 106 2 100.652 102.902 99.4141
187 107 2 99.6145 100.889 99.8975
188 108 2 97.9851 97.6022 101.975
189 109 2 98.6738 99.5545 100.594
190 110 2 101.924 100.043 97.4142
191 111 2 98.1853 101.028 99.3717
192 112 2 100.619 102.33 102.166
193 113 2 102.645 100.955 102.492
194 114 2 102.38 100.414 98.6861
195 115 2 100.526 102.63 97.2063
196 116 2 100.204 101.113 98.148
197 117 2 98.8845 100.577 100.664
198 118 2 101.055 100.532 97.9841
199 119 2 100.074 98.133 101.856
200 120 2 99.7713 98.8518 101.195
ITEM: TIMESTEP
3000
ITEM: NUMBER OF ATOMS
200
ITEM: BOX BOUNDS pp pp pp
9.6948982483152150e+01 1.0305101751684785e+02
9.7039153677996751e+01 1.0296084632200325e+02
9.7039153677996751e+01 1.0296084632200325e+02
ITEM: ATOMS id mol type x y z
1 1 1 102.881 99.8326 100.415
2 1 1 102.039 99.6521 101.25
3 2 1 100.99 98.5283 102.355
4 2 1 101.194 99.6405 101.897
5 3 1 100.244 99.8603 98.1787
6 3 1 101.337 99.5199 98.0705
7 4 1 98.2565 99.7013 102.907
8 4 1 98.9835 98.8679 97.4445
9 5 1 98.8815 98.267 101.579
10 5 1 97.7763 98.5544 101.482
11 6 1 102.897 97.1828 102.17
12 6 1 102.145 97.4754 101.262
13 7 1 98.9614 97.8384 102.588
14 7 1 98.6046 102.63 102.41
15 8 1 101.689 100.552 101.802
16 8 1 102.522 101.287 101.437
17 9 1 101.204 100.883 102.721
18 9 1 101.653 101.73 101.922
19 10 1 101.008 100.691 101.023
20 10 1 101.421 100.944 99.8559
21 11 1 102.875 102.636 98.3399
22 11 1 97.9325 102.599 98.3661
23 12 1 101.892 98.8099 101.881
24 12 1 102.945 98.1241 101.77
25 13 1 98.6886 100.848 102.904
26 13 1 97.6993 100.525 102.352
27 14 1 98.0336 101.354 100.886
28 14 1 98.8416 101.645 100.089
29 15 1 102.822 97.4676 99.2041
30 15 1 103.004 102.716 100.231
31 16 1 100.251 101.961 101.081
32 16 1 99.0704 101.621 101.187
33 17 1 97.1394 98.4055 100.62
34 17 1 97.1931 97.3047 101.129
35 18 1 102.324 99.0103 99.9765
36 18 1 101.996 98.2857 99.0876
37 19 1 97.4725 101.427 102.853
38 19 1 97.5837 102.389 102.187
39 20 1 102.543 98.183 97.3925
40 20 1 101.372 97.9349 97.28
41 21 1 99.7979 98.8096 98.0993
42 21 1 99.201 97.8398 97.8019
43 22 1 98.2892 101.973 97.388
44 22 1 99.1518 101.232 97.9284
45 23 1 98.1625 98.2796 97.8425
46 23 1 97.1994 97.6088 97.9632
47 24 1 102.132 98.5044 100.917
48 24 1 101.194 97.8834 101.382
49 25 1 100.451 100.917 99.1938
50 25 1 100.562 101.359 100.299
51 26 1 97.0963 98.4563 99.4895
52 26 1 102.416 97.8264 100.138
53 27 1 102.251 97.5511 98.2859
54 27 1 102.414 97.161 97.2025
55 28 1 98.2859 97.4492 100.818
56 28 1 98.372 98.6029 100.612
57 29 1 97.2584 102.13 101.02
58 29 1 102.463 101.696 100.413
59 30 1 99.8861 97.2862 102.395
60 30 1 99.0501 97.233 101.591
61 31 1 102.082 100.067 99.6166
62 31 1 102.191 99.3926 98.6475
63 32 1 99.2134 100.031 102.492
64 32 1 98.4549 99.4509 101.76
65 33 1 100.37 97.7181 97.7437
66 33 1 99.8468 98.4121 102.899
67 34 1 101.787 98.5061 98.0661
68 34 1 101.237 97.6395 98.6183
69 35 1 97.3815 101.357 101.796
70 35 1 97.9111 100.418 101.305
71 36 1 100.147 100.508 97.2617
72 36 1 99.6179 101.083 102.279
73 37 1 99.2833 101.819 103.017
74 37 1 98.3901 101.613 102.194
75 38 1 97.4908 99.421 102.171
76 38 1 102.998 100.252 101.567
77 39 1 99.3365 102.839 97.3112
78 39 1 99.9142 102.041 97.9726
79 40 1 101.389 98.5349 100.199
80 40 1 100.344 98.1936 100.668
81 41 1 99.2991 102.545 100.748
82 41 1 100.207 97.1483 101.308
83 42 1 98.9245 102.334 98.1919
84 42 1 98.4424 102.158 99.2482
85 43 1 100.471 99.1765 100.113
86 43 1 100.943 98.8861 101.187
87 44 1 100.413 99.8099 101.139
88 44 1 101.417 99.6788 100.414
89 45 1 100.761 98.7657 97.4974
90 45 1 99.8497 99.4715 97.1608
91 46 1 102.984 99.5497 99.3087
92 46 1 97.2792 99.6975 98.2086
93 47 1 98.8265 97.0731 99.8723
94 47 1 99.6126 102.672 98.9896
95 48 1 98.3204 99.3845 98.0735
96 48 1 97.4583 98.9158 97.4431
97 49 1 97.6729 99.4545 100.931
98 49 1 97.9155 100.382 100.213
99 50 1 97.8533 99.9001 99.1217
100 50 1 98.873 100.224 99.6614
101 51 1 97.2889 101.707 98.9422
102 51 1 102.393 101.255 99.4807
103 52 1 97.1271 100.836 100.757
104 52 1 97.0915 100.582 99.5929
105 53 1 99.9779 97.7504 98.7472
106 53 1 98.8252 97.3867 98.7773
107 54 1 100.019 97.2917 100.175
108 54 1 99.8381 102.106 99.9128
109 55 1 100.933 97.4544 102.364
110 55 1 102.085 97.8886 102.37
111 56 1 97.2978 100.705 98.5697
112 56 1 98.4967 100.439 98.4742
113 57 1 97.0831 99.9742 97.0896
114 57 1 102.555 99.2195 97.6819
115 58 1 97.3322 102.648 97.2614
116 58 1 97.3496 97.8816 102.833
117 59 1 97.3335 101.787 97.9226
118 59 1 102.387 102.104 97.5128
119 60 1 97.8246 98.8612 98.8055
120 60 1 97.7369 99.1843 99.9464
121 61 1 100.242 100.207 102.096
122 61 1 100.645 101.29 101.884
123 62 1 101.229 102.683 101.246
124 62 1 102.376 102.356 101.388
125 63 1 98.2282 101.464 98.3962
126 63 1 97.8478 100.604 97.6007
127 64 1 102.887 100.87 97.6309
128 64 1 102.483 101.625 98.494
129 65 1 99.2094 99.5294 98.6532
130 65 1 99.4956 100.627 98.7385
131 66 1 99.2805 97.8278 100.705
132 66 1 99.3681 98.8994 100.154
133 67 1 99.3567 99.9131 101.434
134 67 1 98.762 100.742 101.796
135 68 1 97.4864 102.618 99.3499
136 68 1 97.558 97.6242 100.047
137 69 1 100.014 99.9162 99.2484
138 69 1 99.6765 99.9411 100.385
139 70 1 102.337 99.8359 102.282
140 70 1 101.753 98.9902 97.0253
141 71 1 101.864 101.232 97.7027
142 71 1 100.924 101.866 98.0086
143 72 1 100.557 102.793 98.3622
144 72 1 101.635 102.405 98.665
145 73 1 99.3864 97.9668 99.6398
146 73 1 100.56 98.1614 99.6332
147 74 1 99.8219 98.884 99.2171
148 74 1 98.665 99.1672 99.4922
149 75 1 100.227 99.18 102.111
150 75 1 99.1764 98.9265 102.296
151 76 1 100.651 100.244 100.037
152 76 1 101.237 100.241 98.9534
153 77 1 101.479 101.279 98.7419
154 77 1 100.514 101.959 99.0434
155 78 1 101.955 102.662 100.451
156 78 1 100.78 102.424 100.334
157 79 1 101.538 101.984 99.6931
158 79 1 101.806 97.2306 99.4582
159 80 1 101.812 102.802 102.186
160 80 1 101.38 102.007 102.956
161 81 2 98.1872 98.5541 102.583
162 82 2 97.7877 97.7418 98.8165
163 83 2 101.196 97.5564 100.381
164 84 2 99.1276 100.04 97.7372
165 85 2 101.353 99.2672 99.2875
166 86 2 98.2296 97.2968 97.3683
167 87 2 102.913 99.1907 101.453
168 88 2 98.253 102.431 101.367
169 89 2 98.3461 98.1485 99.5717
170 90 2 99.4708 101.656 99.0379
171 91 2 102.143 100.686 100.668
172 92 2 97.999 102.486 100.288
173 93 2 99.6354 102.197 101.939
174 94 2 99.854 100.844 101.135
175 95 2 100.789 98.6175 98.7096
176 96 2 102.953 98.568 98.4332
177 97 2 102.76 98.8207 102.506
178 98 2 100.944 99.7298 97.0453
179 99 2 97.3893 101.648 99.9755
180 100 2 101.464 102.787 97.7076
181 101 2 102.683 102.084 102.428
182 102 2 98.8725 98.4342 98.6361
183 103 2 101.511 101.673 100.877
184 104 2 100.343 101.546 103.027
185 105 2 102.532 102.288 99.4125
186 106 2 100.71 102.941 99.4091
187 107 2 99.6647 100.905 99.8971
188 108 2 97.9653 97.6012 101.982
189 109 2 98.6542 99.6023 100.648
190 110 2 102.006 100.109 97.438
191 111 2 98.1966 101.025 99.3755
192 112 2 100.676 102.287 102.126
193 113 2 102.622 100.859 102.49
194 114 2 102.363 100.438 98.6652
195 115 2 100.511 102.611 97.2145
196 116 2 100.256 101.094 98.2086
197 117 2 98.8994 100.688 100.689
198 118 2 101.057 100.529 97.8651
199 119 2 100.088 98.1098 101.805
200 120 2 99.7115 98.8781 101.175
ITEM: TIMESTEP
4000
ITEM: NUMBER OF ATOMS
200
ITEM: BOX BOUNDS pp pp pp
9.6918319247331112e+01 1.0308168075266889e+02
9.7039153677996751e+01 1.0296084632200325e+02
9.7039153677996751e+01 1.0296084632200325e+02
ITEM: ATOMS id mol type x y z
1 1 1 102.956 99.7995 100.449
2 1 1 102.015 99.6935 101.217
3 2 1 101.014 98.5262 102.315
4 2 1 101.219 99.6662 101.934
5 3 1 100.2 99.8739 98.136
6 3 1 101.372 99.5182 98.127
7 4 1 98.2057 99.8134 103.034
8 4 1 98.8948 98.9143 97.5076
9 5 1 98.8526 98.3555 101.593
10 5 1 97.6532 98.5841 101.605
11 6 1 102.867 97.1549 102.108
12 6 1 102.16 97.463 101.214
13 7 1 98.9387 97.8288 102.589
14 7 1 98.5569 102.612 102.467
15 8 1 101.727 100.603 101.824
16 8 1 102.487 101.341 101.499
17 9 1 101.294 100.932 102.78
18 9 1 101.603 101.713 101.934
19 10 1 101.056 100.656 100.99
20 10 1 101.465 100.92 99.8477
21 11 1 102.842 102.647 98.2531
22 11 1 97.873 102.649 98.3347
23 12 1 101.936 98.8802 101.959
24 12 1 102.916 98.1246 101.708
25 13 1 98.7031 100.906 102.898
26 13 1 97.7328 100.56 102.386
27 14 1 98.0433 101.404 100.864
28 14 1 98.8313 101.597 99.9962
29 15 1 102.871 97.4171 99.2207
30 15 1 103.028 102.675 100.245
31 16 1 100.218 101.979 101.079
32 16 1 99.1066 101.601 101.046
33 17 1 97.0757 98.4439 100.616
34 17 1 97.1212 97.3264 101.104
35 18 1 102.29 99.0444 100.018
36 18 1 102.095 98.2851 99.1342
37 19 1 97.4005 101.45 102.862
38 19 1 97.5245 102.412 102.143
39 20 1 102.549 98.1888 97.4238
40 20 1 101.436 97.9808 97.2242
41 21 1 99.7976 98.8282 98.0587
42 21 1 99.1518 97.8992 97.797
43 22 1 98.2433 101.986 97.4496
44 22 1 99.1318 101.277 97.9209
45 23 1 98.08 98.2712 97.8335
46 23 1 97.1729 97.5624 97.9365
47 24 1 102.07 98.5204 101.01
48 24 1 101.16 97.853 101.4
49 25 1 100.43 100.879 99.1663
50 25 1 100.557 101.318 100.294
51 26 1 96.991 98.4318 99.4906
52 26 1 102.411 97.8211 100.207
53 27 1 102.264 97.5981 98.2558
54 27 1 102.382 97.1185 97.1599
55 28 1 98.2916 97.4367 100.828
56 28 1 98.2804 98.6224 100.694
57 29 1 97.2914 102.185 101.089
58 29 1 102.539 101.734 100.476
59 30 1 99.8693 97.1857 102.316
60 30 1 98.9393 97.2923 101.629
61 31 1 102.093 100.067 99.6897
62 31 1 102.215 99.3142 98.7777
63 32 1 99.1659 100.062 102.441
64 32 1 98.4479 99.3992 101.694
65 33 1 100.511 97.719 97.7086
66 33 1 99.8356 98.344 102.926
67 34 1 101.802 98.5434 98.1041
68 34 1 101.201 97.6805 98.6886
69 35 1 97.374 101.346 101.793
70 35 1 97.9126 100.372 101.346
71 36 1 100.176 100.532 97.2149
72 36 1 99.6409 101.11 102.238
73 37 1 99.2604 101.865 102.971
74 37 1 98.3113 101.613 102.278
75 38 1 97.5243 99.5175 102.225
76 38 1 103.016 100.255 101.604
77 39 1 99.3789 102.913 97.3237
78 39 1 99.9344 102.068 97.9383
79 40 1 101.386 98.5341 100.2
80 40 1 100.349 98.1584 100.656
81 41 1 99.2798 102.584 100.734
82 41 1 100.242 97.1713 101.261
83 42 1 98.9397 102.365 98.1715
84 42 1 98.494 102.213 99.2073
85 43 1 100.479 99.1366 100.104
86 43 1 101.015 98.8824 101.152
87 44 1 100.435 99.7664 101.146
88 44 1 101.401 99.6022 100.447
89 45 1 100.691 98.7877 97.4799
90 45 1 99.8127 99.507 97.1666
91 46 1 103.005 99.56 99.3739
92 46 1 97.1919 99.6781 98.2814
93 47 1 98.8426 97.1134 99.8508
94 47 1 99.6548 102.648 99.062
95 48 1 98.2671 99.456 98.1791
96 48 1 97.4716 99.006 97.4209
97 49 1 97.6384 99.4387 100.985