ITEM: TIMESTEP
0
ITEM: NUMBER OF ATOMS
200
ITEM: BOX BOUNDS pp pp pp
9.7039153677996751e+01 1.0296084632200325e+02
9.7039153677996751e+01 1.0296084632200325e+02
9.7039153677996751e+01 1.0296084632200325e+02
ITEM: ATOMS id mol type x y z
1 1 1 102.811 99.8191 100.473
2 1 1 101.909 99.6119 101.231
3 2 1 100.91 98.4742 102.364
4 2 1 101.247 99.6476 102.087
5 3 1 100.186 99.9051 98.127
6 3 1 101.279 99.4644 98.1029
7 4 1 98.3119 99.7802 102.957
8 4 1 98.9785 98.9632 97.4794
9 5 1 98.9083 98.3901 101.61
10 5 1 97.764 98.5274 101.536
11 6 1 102.822 97.0965 102.068
12 6 1 102.078 97.4234 101.213
13 7 1 98.9746 97.8531 102.607
14 7 1 98.6739 102.672 102.443
15 8 1 101.692 100.563 101.752
16 8 1 102.498 101.292 101.435
17 9 1 101.193 100.882 102.666
18 9 1 101.622 101.702 101.936
19 10 1 100.991 100.688 100.989
20 10 1 101.397 100.94 99.8932
21 11 1 102.72 102.615 98.3423
22 11 1 97.9492 102.664 98.3234
23 12 1 101.794 98.7888 101.914
24 12 1 102.79 98.0784 101.732
25 13 1 98.7211 100.985 102.875
26 13 1 97.7886 100.474 102.312
27 14 1 98.0981 101.413 100.84
28 14 1 98.8715 101.689 100.014
29 15 1 102.668 97.4409 99.2246
30 15 1 102.935 102.722 100.214
31 16 1 100.237 101.907 101.086
32 16 1 99.0907 101.591 101.141
33 17 1 97.2429 98.4623 100.59
34 17 1 97.2419 97.3792 101.066
35 18 1 102.223 99.0322 100.032
36 18 1 101.923 98.2278 99.2005
37 19 1 97.6254 101.384 102.839
38 19 1 97.7186 102.351 102.151
39 20 1 102.481 98.1524 97.3598
40 20 1 101.324 97.963 97.301
41 21 1 99.8068 98.9134 98.1202
42 21 1 99.2397 97.9269 97.8185
43 22 1 98.3599 102.001 97.3282
44 22 1 99.168 101.267 97.9201
45 23 1 98.1733 98.3253 97.8387
46 23 1 97.3158 97.5591 97.8943
47 24 1 102.033 98.4729 100.944
48 24 1 101.115 97.8121 101.472
49 25 1 100.478 100.921 99.159
50 25 1 100.514 101.352 100.267
51 26 1 97.0592 98.463 99.4717
52 26 1 102.352 97.7638 100.202
53 27 1 102.219 97.6162 98.2841
54 27 1 102.386 97.1406 97.1347
55 28 1 98.2965 97.4625 100.782
56 28 1 98.4243 98.593 100.654
57 29 1 97.3633 102.15 101.107
58 29 1 102.426 101.663 100.422
59 30 1 99.8391 97.1666 102.38
60 30 1 99.0687 97.3131 101.567
61 31 1 102.012 100.052 99.6441
62 31 1 102.125 99.3599 98.6694
63 32 1 99.1982 100.118 102.432
64 32 1 98.4748 99.4547 101.744
65 33 1 100.371 97.752 97.7449
66 33 1 99.8154 98.4524 102.934
67 34 1 101.725 98.5181 98.0603
68 34 1 101.203 97.608 98.671
69 35 1 97.5625 101.332 101.781
70 35 1 97.9476 100.372 101.254
71 36 1 100.101 100.559 97.2508
72 36 1 99.5992 101.119 102.211
73 37 1 99.3574 101.896 102.948
74 37 1 98.5431 101.691 102.156
75 38 1 97.5256 99.4688 102.241
76 38 1 102.832 100.222 101.504
77 39 1 99.4061 102.926 97.3919
78 39 1 99.9112 102.053 97.9658
79 40 1 101.325 98.5712 100.209
80 40 1 100.331 98.1877 100.707
81 41 1 99.3519 102.497 100.745
82 41 1 100.192 97.1206 101.32
83 42 1 98.9271 102.334 98.1351
84 42 1 98.572 102.321 99.2447
85 43 1 100.419 99.1998 100.201
86 43 1 100.982 98.9105 101.226
87 44 1 100.471 99.8197 101.185
88 44 1 101.339 99.6371 100.366
89 45 1 100.685 98.8104 97.4934
90 45 1 99.8096 99.5475 97.1561
91 46 1 102.886 99.5073 99.3573
92 46 1 97.2757 99.666 98.26
93 47 1 98.9089 97.1203 99.9222
94 47 1 99.579 102.64 98.9697
95 48 1 98.3368 99.4681 98.1698
96 48 1 97.5656 99.0356 97.4145
97 49 1 97.7508 99.4258 100.986
98 49 1 97.9577 100.288 100.163
99 50 1 97.9368 99.9272 99.1414
100 50 1 98.9721 100.22 99.5765
101 51 1 97.3354 101.661 98.9012
102 51 1 102.307 101.214 99.4496
103 52 1 97.2205 100.88 100.729
104 52 1 97.1274 100.53 99.5627
105 53 1 99.9634 97.7528 98.7359
106 53 1 98.7994 97.3756 98.7367
107 54 1 100.01 97.2765 100.189
108 54 1 99.8574 102.105 99.8559
109 55 1 100.852 97.4312 102.427
110 55 1 101.977 97.8546 102.368
111 56 1 97.4537 100.702 98.5386
112 56 1 98.5825 100.49 98.5359
113 57 1 97.2113 100.036 97.1828
114 57 1 102.469 99.1594 97.6763
115 58 1 97.4334 102.589 97.2575
116 58 1 97.4109 97.8005 102.789
117 59 1 97.4616 101.734 97.9029
118 59 1 102.362 102.097 97.4929
119 60 1 97.8416 98.8557 98.8684
120 60 1 97.7539 99.1994 99.9879
121 61 1 100.2 100.268 102.163
122 61 1 100.641 101.268 101.822
123 62 1 101.168 102.616 101.284
124 62 1 102.311 102.336 101.386
125 63 1 98.3383 101.529 98.4832
126 63 1 98.0245 100.677 97.6665
127 64 1 102.812 100.887 97.6614
128 64 1 102.318 101.577 98.4445
129 65 1 99.2367 99.5657 98.6886
130 65 1 99.5651 100.62 98.6978
131 66 1 99.3418 97.8459 100.758
132 66 1 99.4001 98.9053 100.217
133 67 1 99.4327 99.9241 101.417
134 67 1 98.7696 100.786 101.72
135 68 1 97.544 102.636 99.2952
136 68 1 97.5844 97.6323 100.003
137 69 1 100.097 99.9063 99.2597
138 69 1 99.7145 99.9719 100.37
139 70 1 102.279 99.7717 102.283
140 70 1 101.631 99.0057 97.0418
141 71 1 101.824 101.198 97.5929
142 71 1 100.998 101.872 98.0264
143 72 1 100.514 102.819 98.3693
144 72 1 101.608 102.462 98.6848
145 73 1 99.4163 97.9913 99.6072
146 73 1 100.622 98.1025 99.644
147 74 1 99.8766 98.8579 99.2355
148 74 1 98.7258 99.1938 99.5173
149 75 1 100.294 99.2611 102.096
150 75 1 99.1963 99.0342 102.346
151 76 1 100.619 100.293 100.024
152 76 1 101.204 100.198 98.9409
153 77 1 101.441 101.197 98.7771
154 77 1 100.499 101.972 98.9597
155 78 1 101.92 102.587 100.45
156 78 1 100.759 102.373 100.323
157 79 1 101.45 101.956 99.6314
158 79 1 101.719 97.1788 99.5732
159 80 1 101.744 102.757 102.183
160 80 1 101.432 101.977 102.924
161 81 2 98.2014 98.5971 102.619
162 82 2 97.8122 97.7771 98.8217
163 83 2 101.153 97.5482 100.402
164 84 2 99.078 100.157 97.6892
165 85 2 101.272 99.1842 99.2886
166 86 2 98.3277 97.302 97.3958
167 87 2 102.813 99.1401 101.459
168 88 2 98.3526 102.481 101.351
169 89 2 98.4084 98.1424 99.6228
170 90 2 99.4277 101.601 98.9553
171 91 2 102.134 100.62 100.663
172 92 2 98.0658 102.463 100.32
173 93 2 99.5812 102.219 101.844
174 94 2 99.8186 100.847 101.09
175 95 2 100.739 98.5251 98.6584
176 96 2 102.872 98.477 98.4229
177 97 2 102.718 98.8044 102.514
178 98 2 100.921 99.7901 97.148
179 99 2 97.4413 101.677 99.9446
180 100 2 101.437 102.841 97.7112
181 101 2 102.646 102.02 102.395
182 102 2 98.8523 98.4915 98.6841
183 103 2 101.472 101.656 100.833
184 104 2 100.33 101.555 102.959
185 105 2 102.458 102.244 99.4221
186 106 2 100.642 102.912 99.4093
187 107 2 99.6287 100.935 99.8633
188 108 2 97.9873 97.5331 101.965
189 109 2 98.7156 99.5786 100.646
190 110 2 101.987 100.061 97.4541
191 111 2 98.2078 101.062 99.4132
192 112 2 100.635 102.241 102.124
193 113 2 102.581 100.882 102.497
194 114 2 102.361 100.407 98.6734
195 115 2 100.529 102.61 97.2155
196 116 2 100.337 101.102 98.1527
197 117 2 98.8636 100.651 100.632
198 118 2 101.171 100.487 97.9426
199 119 2 100.01 98.0493 101.853
200 120 2 99.7615 98.8917 101.275
ITEM: TIMESTEP
1000
ITEM: NUMBER OF ATOMS
200
ITEM: BOX BOUNDS pp pp pp
9.7009396677750075e+01 1.0299060332224992e+02
9.7039153677996751e+01 1.0296084632200325e+02
9.7039153677996751e+01 1.0296084632200325e+02
ITEM: ATOMS id mol type x y z
1 1 1 102.812 99.8686 100.407
2 1 1 101.966 99.6631 101.241
3 2 1 100.979 98.5438 102.389
4 2 1 101.197 99.669 101.964
5 3 1 100.183 99.8834 98.2149
6 3 1 101.313 99.4835 98.041
7 4 1 98.2324 99.7094 102.966
8 4 1 98.9563 98.8989 97.4135
9 5 1 98.9102 98.3145 101.551
10 5 1 97.766 98.577 101.491
11 6 1 102.788 97.1777 102.135
12 6 1 102.119 97.4249 101.155
13 7 1 98.9213 97.9111 102.611
14 7 1 98.6752 102.71 102.442
15 8 1 101.801 100.537 101.854
16 8 1 102.495 101.324 101.413
17 9 1 101.242 100.87 102.788
18 9 1 101.632 101.718 101.94
19 10 1 100.97 100.671 101.025
20 10 1 101.425 100.932 99.9228
21 11 1 102.727 102.581 98.2511
22 11 1 97.9175 102.582 98.3211
23 12 1 101.846 98.8183 101.898
24 12 1 102.825 98.1044 101.669
25 13 1 98.6694 100.898 102.942
26 13 1 97.7096 100.506 102.341
27 14 1 98.1135 101.397 100.897
28 14 1 98.8403 101.707 100.065
29 15 1 102.761 97.4414 99.1857
30 15 1 102.939 102.742 100.226
31 16 1 100.266 101.859 101.157
32 16 1 99.1177 101.608 101.193
33 17 1 97.1388 98.4316 100.613
34 17 1 97.26 97.3189 101.096
35 18 1 102.235 99.0476 100.048
36 18 1 102 98.2678 99.1829
37 19 1 97.5512 101.423 102.842
38 19 1 97.6598 102.394 102.16
39 20 1 102.549 98.1697 97.3632
40 20 1 101.406 97.9604 97.3384
41 21 1 99.8041 98.8747 98.1005
42 21 1 99.1851 97.8962 97.8836
43 22 1 98.3524 101.972 97.413
44 22 1 99.2097 101.186 97.8383
45 23 1 98.1817 98.2631 97.781
46 23 1 97.2609 97.5185 97.9094
47 24 1 102.067 98.4424 100.927
48 24 1 101.204 97.8698 101.428
49 25 1 100.439 100.915 99.1893
50 25 1 100.494 101.327 100.286
51 26 1 97.0704 98.4645 99.5148
52 26 1 102.381 97.7565 100.162
53 27 1 102.243 97.6147 98.2354
54 27 1 102.422 97.1276 97.154
55 28 1 98.2788 97.4121 100.805
56 28 1 98.363 98.521 100.609
57 29 1 97.3772 102.137 101.069
58 29 1 102.435 101.709 100.417
59 30 1 99.8539 97.2734 102.413
60 30 1 99.0344 97.28 101.576
61 31 1 102.033 100.108 99.6311
62 31 1 102.142 99.4247 98.675
63 32 1 99.1546 100.079 102.48
64 32 1 98.4312 99.488 101.776
65 33 1 100.416 97.659 97.6717
66 33 1 99.8223 98.3972 102.923
67 34 1 101.765 98.5572 98.1205
68 34 1 101.205 97.6359 98.636
69 35 1 97.5162 101.364 101.782
70 35 1 98.0163 100.398 101.287
71 36 1 100.171 100.486 97.2774
72 36 1 99.6343 101.141 102.319
73 37 1 99.3668 101.953 102.973
74 37 1 98.4419 101.705 102.269
75 38 1 97.4994 99.5071 102.165
76 38 1 102.857 100.274 101.513
77 39 1 99.3899 102.951 97.3836
78 39 1 99.905 102.062 98.0084
79 40 1 101.307 98.5632 100.219
80 40 1 100.316 98.1194 100.683
81 41 1 99.3367 102.566 100.733
82 41 1 100.195 97.1453 101.344
83 42 1 98.9459 102.374 98.1517
84 42 1 98.491 102.201 99.2222
85 43 1 100.432 99.1359 100.122
86 43 1 100.939 98.8711 101.198
87 44 1 100.447 99.7752 101.186
88 44 1 101.356 99.6221 100.452
89 45 1 100.7 98.7598 97.4763
90 45 1 99.8098 99.4834 97.1693
91 46 1 102.921 99.5633 99.3782
92 46 1 97.2658 99.6921 98.2528
93 47 1 98.8887 97.0892 99.8435
94 47 1 99.6002 102.617 98.9584
95 48 1 98.3449 99.4453 98.0738
96 48 1 97.4904 98.9692 97.4248
97 49 1 97.6839 99.5039 101.001
98 49 1 98.0139 100.394 100.204
99 50 1 97.9052 99.9308 99.1705
100 50 1 98.9495 100.154 99.6234
101 51 1 97.4121 101.739 98.9393
102 51 1 102.374 101.24 99.464
103 52 1 97.1772 100.866 100.703
104 52 1 97.1461 100.58 99.6237
105 53 1 100.022 97.7574 98.7147
106 53 1 98.8788 97.4148 98.7658
107 54 1 100.01 97.2644 100.159
108 54 1 99.8266 102.059 99.8492
109 55 1 100.879 97.4773 102.412
110 55 1 101.984 97.8852 102.366
111 56 1 97.4102 100.733 98.6078
112 56 1 98.5451 100.44 98.5065
113 57 1 97.1567 99.9612 97.1495
114 57 1 102.48 99.1906 97.6824
115 58 1 97.4211 102.555 97.2767
116 58 1 97.4462 97.8278 102.808
117 59 1 97.4436 101.699 97.9217
118 59 1 102.401 102.034 97.4438
119 60 1 97.8022 98.9059 98.8219
120 60 1 97.7326 99.1978 100.002
121 61 1 100.175 100.241 102.128
122 61 1 100.723 101.235 101.939
123 62 1 101.183 102.667 101.286
124 62 1 102.367 102.37 101.335
125 63 1 98.3461 101.48 98.3917
126 63 1 97.8825 100.613 97.6611
127 64 1 102.816 100.857 97.606
128 64 1 102.42 101.609 98.474
129 65 1 99.1953 99.5586 98.6571
130 65 1 99.5579 100.614 98.7366
131 66 1 99.2723 97.8594 100.684
132 66 1 99.3727 98.9038 100.175
133 67 1 99.3809 99.9075 101.426
134 67 1 98.7965 100.812 101.803
135 68 1 97.6021 102.704 99.3315
136 68 1 97.5264 97.6499 100.071
137 69 1 100.034 99.8554 99.2843
138 69 1 99.7144 99.8949 100.417
139 70 1 102.357 99.7533 102.274
140 70 1 101.696 99.0142 97.0363
141 71 1 101.824 101.156 97.7206
142 71 1 100.986 101.85 98.0116
143 72 1 100.537 102.791 98.4114
144 72 1 101.634 102.399 98.6385
145 73 1 99.389 97.9745 99.5892
146 73 1 100.552 98.1186 99.6
147 74 1 99.795 98.8304 99.163
148 74 1 98.662 99.1381 99.4938
149 75 1 100.239 99.2079 102.098
150 75 1 99.1931 99.013 102.283
151 76 1 100.654 100.253 100.028
152 76 1 101.193 100.216 98.9208
153 77 1 101.432 101.225 98.797
154 77 1 100.507 101.94 98.9908
155 78 1 101.89 102.63 100.394
156 78 1 100.725 102.391 100.374
157 79 1 101.448 102.007 99.6572
158 79 1 101.808 97.1897 99.4783
159 80 1 101.757 102.812 102.212
160 80 1 101.427 101.945 102.94
161 81 2 98.1669 98.6007 102.608
162 82 2 97.7921 97.7969 98.7978
163 83 2 101.221 97.5128 100.322
164 84 2 99.1619 100.094 97.7444
165 85 2 101.292 99.2683 99.3198
166 86 2 98.2963 97.2731 97.3653
167 87 2 102.815 99.1796 101.46
168 88 2 98.3301 102.464 101.377
169 89 2 98.3521 98.1265 99.5778
170 90 2 99.3787 101.587 98.9782
171 91 2 102.097 100.65 100.667
172 92 2 98.0619 102.452 100.295
173 93 2 99.6225 102.287 101.879
174 94 2 99.8605 100.856 101.177
175 95 2 100.747 98.6208 98.667
176 96 2 102.91 98.5081 98.405
177 97 2 102.76 98.7866 102.476
178 98 2 100.915 99.776 97.0232
179 99 2 97.4122 101.675 99.947
180 100 2 101.514 102.781 97.7133
181 101 2 102.633 102.057 102.361
182 102 2 98.7833 98.4766 98.6403
183 103 2 101.458 101.694 100.845
184 104 2 100.354 101.51 103.009
185 105 2 102.514 102.26 99.3793
186 106 2 100.677 102.897 99.4374
187 107 2 99.6506 100.863 99.8768
188 108 2 97.9705 97.5787 101.967
189 109 2 98.6637 99.5456 100.662
190 110 2 101.943 100.071 97.3927
191 111 2 98.2456 101.075 99.4079
192 112 2 100.666 102.299 102.171
193 113 2 102.595 100.988 102.468
194 114 2 102.345 100.444 98.659
195 115 2 100.524 102.565 97.2467
196 116 2 100.251 101.082 98.1868
197 117 2 98.9199 100.644 100.674
198 118 2 101.089 100.487 97.907
199 119 2 100.101 98.1459 101.819
200 120 2 99.7387 98.8998 101.165
ITEM: TIMESTEP
2000
ITEM: NUMBER OF ATOMS
200
ITEM: BOX BOUNDS pp pp pp
9.6979340614678989e+01 1.0302065938532101e+02
9.7039153677996751e+01 1.0296084632200325e+02
9.7039153677996751e+01 1.0296084632200325e+02
ITEM: ATOMS id mol type x y z
1 1 1 102.877 99.832 100.433
2 1 1 102.013 99.6855 101.266
3 2 1 101.008 98.5118 102.32
4 2 1 101.233 99.6976 102.019
5 3 1 100.16 99.917 98.1888
6 3 1 101.253 99.5451 98.1369
7 4 1 98.2274 99.777 102.982
8 4 1 98.9673 98.9198 97.4677
9 5 1 98.9346 98.3544 101.502
10 5 1 97.7932 98.5706 101.569
11 6 1 102.928 97.1883 102.11
12 6 1 102.15 97.4671 101.22
13 7 1 99.0177 97.8559 102.569
14 7 1 98.6078 102.634 102.519
15 8 1 101.801 100.564 101.805
16 8 1 102.541 101.37 101.414
17 9 1 101.114 100.866 102.631
18 9 1 101.635 101.66 101.888
19 10 1 101.065 100.611 100.997
20 10 1 101.41 100.916 99.8968
21 11 1 102.748 102.598 98.2699
22 11 1 97.8873 102.622 98.3496
23 12 1 101.862 98.8344 101.893
24 12 1 102.897 98.1341 101.659
25 13 1 98.6871 100.92 102.927
26 13 1 97.7696 100.506 102.34
27 14 1 98.1031 101.404 100.858
28 14 1 98.8914 101.75 100.091
29 15 1 102.8 97.4605 99.1781
30 15 1 102.975 102.735 100.212
31 16 1 100.21 102.011 101.058
32 16 1 99.1062 101.576 101.182
33 17 1 97.1477 98.4934 100.578
34 17 1 97.2607 97.3602 101.056
35 18 1 102.303 99.0101 100.01
36 18 1 101.99 98.2531 99.1465
37 19 1 97.4811 101.381 102.879
38 19 1 97.6004 102.364 102.126
39 20 1 102.596 98.1273 97.4042
40 20 1 101.475 97.9287 97.2697
41 21 1 99.8176 98.8511 98.1219
42 21 1 99.2361 97.8888 97.7982
43 22 1 98.2535 101.965 97.4311
44 22 1 99.1418 101.248 97.9319
45 23 1 98.1911 98.2276 97.795
46 23 1 97.2309 97.5285 97.9523
47 24 1 102.148 98.4962 100.951
48 24 1 101.201 97.8772 101.408
49 25 1 100.396 100.975 99.2355
50 25 1 100.548 101.306 100.326
51 26 1 97.057 98.4641 99.5084
52 26 1 102.373 97.7791 100.187
53 27 1 102.182 97.5697 98.2461
54 27 1 102.299 97.0935 97.114
55 28 1 98.3272 97.4371 100.813
56 28 1 98.3267 98.5388 100.648
57 29 1 97.325 102.12 101.085
58 29 1 102.467 101.713 100.413
59 30 1 99.8924 97.244 102.378
60 30 1 99.0003 97.2949 101.611
61 31 1 102.054 100.07 99.6622
62 31 1 102.14 99.3543 98.6743
63 32 1 99.2567 100.057 102.502
64 32 1 98.4489 99.5101 101.802
65 33 1 100.472 97.751 97.763
66 33 1 99.8592 98.3954 102.939
67 34 1 101.79 98.5512 98.0799
68 34 1 101.198 97.6653 98.5781
69 35 1 97.4847 101.324 101.772
70 35 1 97.9646 100.361 101.245
71 36 1 100.124 100.52 97.2574
72 36 1 99.7009 101.116 102.22
73 37 1 99.2921 101.845 102.972
74 37 1 98.4412 101.664 102.226
75 38 1 97.4805 99.5078 102.206
76 38 1 102.922 100.29 101.487
77 39 1 99.3541 102.869 97.3462
78 39 1 99.8915 102.046 97.9851
79 40 1 101.409 98.5073 100.225
80 40 1 100.402 98.0924 100.722
81 41 1 99.2895 102.548 100.733
82 41 1 100.186 97.1613 101.317
83 42 1 98.9038 102.388 98.1175
84 42 1 98.4893 102.243 99.2023
85 43 1 100.451 99.1195 100.195
86 43 1 101.039 98.9206 101.222
87 44 1 100.419 99.7438 101.158
88 44 1 101.389 99.6165 100.435
89 45 1 100.806 98.7595 97.5195
90 45 1 99.8824 99.4222 97.202
91 46 1 102.93 99.5514 99.3289
92 46 1 97.238 99.7408 98.2122
93 47 1 98.8541 97.0878 99.894
94 47 1 99.5829 102.666 99.0203
95 48 1 98.307 99.4875 98.1367
96 48 1 97.5033 98.9531 97.428
97 49 1 97.6646 99.4261 100.962
98 49 1 97.929 100.293 100.154
99 50 1 97.8659 99.8947 99.0982
100 50 1 98.8956 100.131 99.6641
101 51 1 97.2876 101.746 98.9255
102 51 1 102.343 101.256 99.4616
103 52 1 97.2011 100.887 100.717
104 52 1 97.0734 100.584 99.597
105 53 1 99.9842 97.7814 98.6926
106 53 1 98.8171 97.4134 98.718
107 54 1 100.06 97.2405 100.197
108 54 1 99.8699 102.062 99.8706
109 55 1 100.902 97.4702 102.386
110 55 1 101.998 97.8881 102.242
111 56 1 97.3334 100.739 98.5933
112 56 1 98.4983 100.504 98.518
113 57 1 97.1295 99.9929 97.1602
114 57 1 102.543 99.1686 97.6759
115 58 1 97.3247 102.647 97.2755
116 58 1 97.4453 97.861 102.814
117 59 1 97.3381 101.777 97.9123
118 59 1 102.337 102.057 97.4721
119 60 1 97.8308 98.8429 98.8437
120 60 1 97.7005 99.1974 99.9865
121 61 1 100.312 100.266 102.121
122 61 1 100.693 101.31 101.726
123 62 1 101.159 102.618 101.229
124 62 1 102.33 102.355 101.331
125 63 1 98.2357 101.511 98.4701
126 63 1 97.8689 100.624 97.6634
127 64 1 102.805 100.821 97.7038
128 64 1 102.346 101.603 98.4629
129 65 1 99.1872 99.5797 98.7096
130 65 1 99.4805 100.654 98.7675
131 66 1 99.3194 97.7996 100.714
132 66 1 99.4123 98.8636 100.2
133 67 1 99.3769 99.8987 101.462
134 67 1 98.7594 100.785 101.821
135 68 1 97.5631 102.647 99.3476
136 68 1 97.5664 97.6213 100.095
137 69 1 99.9846 99.9216 99.309
138 69 1 99.6893 99.9483 100.413
139 70 1 102.397 99.79 102.273
140 70 1 101.716 99.0089 97.0066
141 71 1 101.857 101.14 97.4133
142 71 1 101.065 101.813 97.9922
143 72 1 100.524 102.802 98.3613
144 72 1 101.567 102.425 98.7086
145 73 1 99.3995 97.9669 99.5952
146 73 1 100.565 98.1546 99.6531
147 74 1 99.8375 98.9003 99.1963
148 74 1 98.6833 99.1056 99.5024
149 75 1 100.314 99.2367 102.112
150 75 1 99.2318 98.987 102.276
151 76 1 100.643 100.208 100.049
152 76 1 101.141 100.222 98.9709
153 77 1 101.448 101.242 98.8169
154 77 1 100.55 101.995 99.0193
155 78 1 101.918 102.662 100.393
156 78 1 100.768 102.36 100.281
157 79 1 101.491 101.936 99.6463
158 79 1 101.798 97.219 99.4661
159 80 1 101.741 102.795 102.098
160 80 1 101.378 102.007 102.903
161 81 2 98.2536 98.6594 102.627
162 82 2 97.7628 97.77 98.7984
163 83 2 101.184 97.5206 100.341
164 84 2 99.1421 100.067 97.757
165 85 2 101.31 99.2313 99.3216
166 86 2 98.2659 97.2502 97.4152
167 87 2 102.88 99.211 101.475
168 88 2 98.3272 102.476 101.377
169 89 2 98.3754 98.113 99.5684
170 90 2 99.3868 101.647 98.975
171 91 2 102.202 100.667 100.663
172 92 2 98.053 102.44 100.323
173 93 2 99.5708 102.238 101.934
174 94 2 99.8191 100.777 101.147
175 95 2 100.778 98.5778 98.6783
176 96 2 102.935 98.5412 98.4347
177 97 2 102.78 98.7888 102.503
178 98 2 100.966 99.795 97.0993
179 99 2 97.38 101.694 99.9483
180 100 2 101.409 102.791 97.721
181 101 2 102.648 102.06 102.376
182 102 2 98.842 98.4859 98.6667
183 103 2 101.513 101.664 100.824
184 104 2 100.334 101.54 103.067
185 105 2 102.484 102.327 99.3823
186 106 2 100.687 102.949 99.3958
187 107 2 99.634 100.879 99.9283
188 108 2 97.9894 97.6298 101.936
189 109 2 98.6398 99.5357 100.64
190 110 2 101.987 99.9911 97.4374
191 111 2 98.1692 101 99.4054
192 112 2 100.612 102.286 102.12
193 113 2 102.639 100.896 102.453
194 114 2 102.345 100.44 98.7003
195 115 2 100.485 102.57 97.2304
196 116 2 100.205 101.108 98.1981
197 117 2 98.8513 100.594 100.688
198 118 2 101.095 100.581 97.8891
199 119 2 100.089 98.1037 101.839
200 120 2 99.8148 98.8442 101.193
ITEM: TIMESTEP
3000
ITEM: NUMBER OF ATOMS
200
ITEM: BOX BOUNDS pp pp pp
9.6948982483152150e+01 1.0305101751684785e+02
9.7039153677996751e+01 1.0296084632200325e+02
9.7039153677996751e+01 1.0296084632200325e+02
ITEM: ATOMS id mol type x y z
1 1 1 102.917 99.8606 100.476
2 1 1 102.029 99.579 101.229
3 2 1 101.025 98.4991 102.371
4 2 1 101.267 99.6377 101.994
5 3 1 100.166 99.915 98.1971
6 3 1 101.277 99.496 98.1314
7 4 1 98.1882 99.7676 103.014
8 4 1 98.911 98.9073 97.4041
9 5 1 98.8743 98.3551 101.559
10 5 1 97.6918 98.5381 101.506
11 6 1 102.885 97.0937 102.127
12 6 1 102.159 97.442 101.236
13 7 1 98.9151 97.8373 102.609
14 7 1 98.5811 102.586 102.42
15 8 1 101.657 100.578 101.832
16 8 1 102.46 101.313 101.447
17 9 1 101.161 100.893 102.747
18 9 1 101.584 101.712 101.904
19 10 1 100.989 100.702 100.996
20 10 1 101.502 100.901 99.8826
21 11 1 102.786 102.599 98.2497
22 11 1 97.8802 102.571 98.3177
23 12 1 101.878 98.7762 101.898
24 12 1 102.885 98.086 101.726
25 13 1 98.6444 100.884 102.947
26 13 1 97.6677 100.533 102.329
27 14 1 98.0419 101.414 100.888
28 14 1 98.8896 101.671 100.101
29 15 1 102.886 97.4705 99.136
30 15 1 103.014 102.765 100.173
31 16 1 100.18 101.98 101.045
32 16 1 99.0888 101.632 101.252
33 17 1 97.1079 98.4844 100.581
34 17 1 97.2079 97.3614 101.095
35 18 1 102.303 99.0477 100.027
36 18 1 102.099 98.2933 99.1827
37 19 1 97.3982 101.403 102.834
38 19 1 97.5454 102.341 102.13
39 20 1 102.58 98.1854 97.4007
40 20 1 101.485 97.985 97.3225
41 21 1 99.778 98.8521 98.0687
42 21 1 99.2097 97.8181 97.8406
43 22 1 98.2314 101.932 97.3707
44 22 1 99.1555 101.254 97.917
45 23 1 98.1919 98.2244 97.7896
46 23 1 97.2132 97.5946 97.9451
47 24 1 102.138 98.4426 100.948
48 24 1 101.198 97.8374 101.49
49 25 1 100.467 100.877 99.133
50 25 1 100.543 101.333 100.256
51 26 1 97.0717 98.4633 99.497
52 26 1 102.435 97.7918 100.166
53 27 1 102.26 97.6213 98.2746
54 27 1 102.402 97.1284 97.1691
55 28 1 98.308 97.4802 100.835
56 28 1 98.3115 98.6341 100.687
57 29 1 97.2616 102.163 101.042
58 29 1 102.516 101.707 100.387
59 30 1 99.864 97.2999 102.375
60 30 1 99.006 97.3041 101.631
61 31 1 102.129 100.054 99.6816
62 31 1 102.173 99.3824 98.7369
63 32 1 99.1823 100.049 102.476
64 32 1 98.4647 99.4156 101.702
65 33 1 100.544 97.7693 97.7675
66 33 1 99.8762 98.4019 102.919
67 34 1 101.788 98.5476 98.1674
68 34 1 101.229 97.6368 98.6647
69 35 1 97.3478 101.318 101.735
70 35 1 97.9296 100.381 101.302
71 36 1 100.072 100.527 97.2704
72 36 1 99.6637 101.128 102.235
73 37 1 99.2201 101.849 102.944
74 37 1 98.3178 101.604 102.199
75 38 1 97.4815 99.4843 102.169
76 38 1 102.912 100.251 101.518
77 39 1 99.3054 102.853 97.2677
78 39 1 99.8759 102.08 97.9661
79 40 1 101.376 98.6171 100.295
80 40 1 100.363 98.1317 100.702
81 41 1 99.3098 102.597 100.783
82 41 1 100.201 97.1874 101.317
83 42 1 98.9135 102.334 98.155
84 42 1 98.4349 102.102 99.2155
85 43 1 100.479 99.166 100.21
86 43 1 101.007 98.8994 101.253
87 44 1 100.471 99.7835 101.187
88 44 1 101.425 99.6694 100.421
89 45 1 100.758 98.8066 97.4678
90 45 1 99.8234 99.4927 97.1832
91 46 1 102.98 99.5347 99.3465
92 46 1 97.2609 99.674 98.2533
93 47 1 98.9117 96.9983 99.8341
94 47 1 99.6736 102.698 98.961
95 48 1 98.2838 99.398 98.1145
96 48 1 97.4203 98.9136 97.4461
97 49 1 97.6416 99.4488 100.98
98 49 1 97.8585 100.372 100.247
99 50 1 97.8981 99.8896 99.1304
100 50 1 98.9595 100.173 99.6213
101 51 1 97.2855 101.709 98.9361
102 51 1 102.43 101.237 99.4445
103 52 1 97.0643 100.904 100.733
104 52 1 97.0833 100.523 99.6015
105 53 1 100.017 97.7579 98.7158
106 53 1 98.8306 97.3873 98.7716
107 54 1 100.057 97.2568 100.2
108 54 1 99.8249 102.091 99.9122
109 55 1 100.947 97.4472 102.483
110 55 1 102.077 97.8915 102.362
111 56 1 97.3391 100.73 98.617
112 56 1 98.4861 100.436 98.4612
113 57 1 97.0481 99.9504 97.135
114 57 1 102.518 99.1869 97.731
115 58 1 97.2772 102.6 97.2017
116 58 1 97.3452 97.8777 102.801
117 59 1 97.2952 101.72 97.8837
118 59 1 102.324 102.02 97.4776
119 60 1 97.8319 98.8078 98.8785
120 60 1 97.6869 99.1874 99.985
121 61 1 100.326 100.273 102.129
122 61 1 100.612 101.323 101.781
123 62 1 101.254 102.675 101.236
124 62 1 102.354 102.352 101.369
125 63 1 98.2157 101.488 98.3778
126 63 1 97.8062 100.635 97.6162
127 64 1 102.818 100.865 97.633
128 64 1 102.455 101.583 98.4764
129 65 1 99.1953 99.5493 98.6662
130 65 1 99.481 100.64 98.7212
131 66 1 99.386 97.826 100.769
132 66 1 99.4533 98.9254 100.185
133 67 1 99.4334 99.8537 101.469
134 67 1 98.8035 100.738 101.762
135 68 1 97.5456 102.647 99.2834
136 68 1 97.5586 97.626 100.051
137 69 1 100.037 99.901 99.2429
138 69 1 99.7752 100.007 100.419
139 70 1 102.326 99.7978 102.273
140 70 1 101.722 99.0101 97.0299
141 71 1 101.806 101.164 97.7118
142 71 1 100.941 101.897 98.0008
143 72 1 100.539 102.831 98.3486
144 72 1 101.654 102.414 98.6238
145 73 1 99.4542 97.9528 99.6376
146 73 1 100.632 98.1909 99.6627
147 74 1 99.8695 98.8673 99.1709
148 74 1 98.701 99.1117 99.5006
149 75 1 100.331 99.223 102.114
150 75 1 99.2172 98.997 102.31
151 76 1 100.677 100.28 100.007
152 76 1 101.269 100.204 98.9591
153 77 1 101.475 101.253 98.7784
154 77 1 100.542 101.964 99.0113
155 78 1 101.973 102.64 100.367
156 78 1 100.793 102.372 100.286
157 79 1 101.53 101.949 99.6282
158 79 1 101.88 97.206 99.4176
159 80 1 101.78 102.822 102.175
160 80 1 101.371 102.005 102.905
161 81 2 98.1747 98.6418 102.586
162 82 2 97.8152 97.761 98.8327
163 83 2 101.247 97.5513 100.35
164 84 2 99.138 100.048 97.7476
165 85 2 101.298 99.211 99.3409
166 86 2 98.2419 97.2287 97.4069
167 87 2 102.911 99.1227 101.475
168 88 2 98.2595 102.487 101.377
169 89 2 98.3993 98.0723 99.6753
170 90 2 99.4523 101.647 99.0044
171 91 2 102.126 100.623 100.716
172 92 2 98.046 102.44 100.31
173 93 2 99.6513 102.265 101.949
174 94 2 99.8497 100.827 101.09
175 95 2 100.745 98.5794 98.6423
176 96 2 102.974 98.5569 98.4632
177 97 2 102.772 98.8625 102.498
178 98 2 100.967 99.7755 97.0812
179 99 2 97.3967 101.681 99.9474
180 100 2 101.432 102.861 97.6636
181 101 2 102.617 102.03 102.384
182 102 2 98.8791 98.4604 98.6283
183 103 2 101.478 101.681 100.801
184 104 2 100.297 101.534 103.02
185 105 2 102.546 102.288 99.3682
186 106 2 100.719 102.974 99.4286
187 107 2 99.6923 100.919 99.8455
188 108 2 97.9391 97.6046 101.955
189 109 2 98.6638 99.606 100.583
190 110 2 101.983 100.064 97.4155
191 111 2 98.1893 101.021 99.412
192 112 2 100.704 102.314 102.103
193 113 2 102.618 100.875 102.492
194 114 2 102.397 100.404 98.6769
195 115 2 100.49 102.621 97.1996
196 116 2 100.219 101.119 98.155
197 117 2 98.8818 100.692 100.646
198 118 2 101.041 100.503 97.9061
199 119 2 100.077 98.1377 101.816
200 120 2 99.7898 98.8798 101.189
ITEM: TIMESTEP
4000
ITEM: NUMBER OF ATOMS
200
ITEM: BOX BOUNDS pp pp pp
9.6918319247331112e+01 1.0308168075266889e+02
9.7039153677996751e+01 1.0296084632200325e+02
9.7039153677996751e+01 1.0296084632200325e+02
ITEM: ATOMS id mol type x y z
1 1 1 102.93 99.8417 100.442
2 1 1 102.033 99.5922 101.184
3 2 1 101.04 98.5112 102.373
4 2 1 101.269 99.6286 101.917
5 3 1 100.191 99.8518 98.1492
6 3 1 101.298 99.4453 98.0804
7 4 1 98.2101 99.8437 103.013
8 4 1 98.9263 98.931 97.4257
9 5 1 98.9202 98.3019 101.566
10 5 1 97.7501 98.5759 101.605
11 6 1 102.961 97.1013 102.131
12 6 1 102.23 97.5043 101.266
13 7 1 98.894 97.8355 102.6
14 7 1 98.6597 102.587 102.468
15 8 1 101.831 100.585 101.873
16 8 1 102.619 101.37 101.442
17 9 1 101.188 100.847 102.707
18 9 1 101.723 101.674 101.938
19 10 1 101.127 100.547 100.986
20 10 1 101.486 100.953 99.9013
21 11 1 102.864 102.61 98.2898
22 11 1 97.8921 102.621 98.338
23 12 1 101.927 98.7773 101.876
24 12 1 102.983 98.1373 101.737
25 13 1 98.693 100.888 102.975
26 13 1 97.7317 100.529 102.314
27 14 1 98.0625 101.41 100.812
28 14 1 98.891 101.671 100.041
29 15 1 102.865 97.509 99.262
30 15 1 102.988 102.754 100.214
31 16 1 100.177 101.981 101.04
32 16 1 99.0994 101.567 101.229
33 17 1 97.1089 98.4266 100.658
34 17 1 97.1948 97.3255 101.064
35 18 1 102.289 99.0669 99.9227
36 18 1 101.896 98.2567 99.1418
37 19 1 97.3672 101.401 102.873
38 19 1 97.5897 102.373 102.18
39 20 1 102.548 98.2045 97.3906
40 20 1 101.411 97.9038 97.2917
41 21 1 99.7754 98.8365 98.0423
42 21 1 99.178 97.8538 97.8205
43 22 1 98.2424 102.021 97.4585
44 22 1 99.1237 101.27 97.9756
45 23 1 98.1715 98.2547 97.8151
46 23 1 97.182 97.5795 97.9256
47 24 1 102.22 98.5243 100.904
48 24 1 101.26 97.9147 101.397
49 25 1 100.46 100.993 99.2111
50 25 1 100.626 101.288 100.35
51 26 1 97.0796 98.4693 99.5485
52 26 1 102.381 97.8596 100.117
53 27 1 102.282 97.5871 98.2609
54 27 1 102.446 97.1166 97.193
55 28 1 98.232 97.4452 100.855
56 28 1 98.3037 98.5942 100.709
57 29 1 97.2357 102.114 101.04
58 29 1 102.478 101.73 100.448
59 30 1 99.8323 97.3428 102.427
60 30 1 98.9542 97.2808 101.656
61 31 1 102.114 100.147 99.6733
62 31 1 102.152 99.3377 98.7329
63 32 1 99.2022 100.089 102.489
64 32 1 98.4277 99.6013 101.79
65 33 1 100.405 97.7226 97.7283
66 33 1 99.7893 98.387 102.897
67 34 1 101.825 98.5365 98.0865
68 34 1 101.237 97.607 98.5147
69 35 1 97.4235 101.35 101.785
70 35 1 97.9534 100.399 101.25
71 36 1 100.152 100.504 97.2079
72 36 1 99.6862 101.087 102.171
73 37 1 99.2427 101.821 103.001
74 37 1 98.3345 101.566 102.253
75 38 1 97.4792 99.4908 102.217
76 38 1 103.032 100.22 101.518
77 39 1 99.3251 102.848 97.3364
78 39 1 99.8726 102.057 97.9573
79 40 1 101.413 98.56 100.228
80 40 1 100.399 98.1349 100.678
81 41 1 99.2678 102.538 100.747
82 41 1 100.177 97.1382 101.332
83 42 1 98.9241 102.321 98.1943
84 42 1 98.4207 102.212 99.2312
85 43 1 100.448 99.1457 100.163
86 43 1 100.999 98.9117 101.177
87 44 1 100.423 99.7752 101.06
88 44 1 101.416 99.6503 100.359
89 45 1 100.72 98.7533 97.4643
90 45 1 99.8428 99.4853 97.1266
91 46 1 103.001 99.6157 99.3555
92 46 1 97.1801 99.6556 98.2677
93 47 1 98.7999 97.0747 99.8791
94 47 1 99.6139 102.693 99.0402
95 48 1 98.295 99.4665 98.1358
96 48 1 97.4702 99.0071 97.3719
97 49 1 97.6303 99.4157 100.99
98 49 1 97.8788 100.25 100.16
99 50 1 97.8261 99.8925 99.1613