ITEM: TIMESTEP
0
ITEM: NUMBER OF ATOMS
200
ITEM: BOX BOUNDS pp pp pp
9.7039153677996751e+01 1.0296084632200325e+02
9.7039153677996751e+01 1.0296084632200325e+02
9.7039153677996751e+01 1.0296084632200325e+02
ITEM: ATOMS id mol type x y z
1 1 1 102.811 99.8191 100.473
2 1 1 101.909 99.6119 101.231
3 2 1 100.91 98.4742 102.364
4 2 1 101.247 99.6476 102.087
5 3 1 100.186 99.9051 98.127
6 3 1 101.279 99.4644 98.1029
7 4 1 98.3119 99.7802 102.957
8 4 1 98.9785 98.9632 97.4794
9 5 1 98.9083 98.3901 101.61
10 5 1 97.764 98.5274 101.536
11 6 1 102.822 97.0965 102.068
12 6 1 102.078 97.4234 101.213
13 7 1 98.9746 97.8531 102.607
14 7 1 98.6739 102.672 102.443
15 8 1 101.692 100.563 101.752
16 8 1 102.498 101.292 101.435
17 9 1 101.193 100.882 102.666
18 9 1 101.622 101.702 101.936
19 10 1 100.991 100.688 100.989
20 10 1 101.397 100.94 99.8932
21 11 1 102.72 102.615 98.3423
22 11 1 97.9492 102.664 98.3234
23 12 1 101.794 98.7888 101.914
24 12 1 102.79 98.0784 101.732
25 13 1 98.7211 100.985 102.875
26 13 1 97.7886 100.474 102.312
27 14 1 98.0981 101.413 100.84
28 14 1 98.8715 101.689 100.014
29 15 1 102.668 97.4409 99.2246
30 15 1 102.935 102.722 100.214
31 16 1 100.237 101.907 101.086
32 16 1 99.0907 101.591 101.141
33 17 1 97.2429 98.4623 100.59
34 17 1 97.2419 97.3792 101.066
35 18 1 102.223 99.0322 100.032
36 18 1 101.923 98.2278 99.2005
37 19 1 97.6254 101.384 102.839
38 19 1 97.7186 102.351 102.151
39 20 1 102.481 98.1524 97.3598
40 20 1 101.324 97.963 97.301
41 21 1 99.8068 98.9134 98.1202
42 21 1 99.2397 97.9269 97.8185
43 22 1 98.3599 102.001 97.3282
44 22 1 99.168 101.267 97.9201
45 23 1 98.1733 98.3253 97.8387
46 23 1 97.3158 97.5591 97.8943
47 24 1 102.033 98.4729 100.944
48 24 1 101.115 97.8121 101.472
49 25 1 100.478 100.921 99.159
50 25 1 100.514 101.352 100.267
51 26 1 97.0592 98.463 99.4717
52 26 1 102.352 97.7638 100.202
53 27 1 102.219 97.6162 98.2841
54 27 1 102.386 97.1406 97.1347
55 28 1 98.2965 97.4625 100.782
56 28 1 98.4243 98.593 100.654
57 29 1 97.3633 102.15 101.107
58 29 1 102.426 101.663 100.422
59 30 1 99.8391 97.1666 102.38
60 30 1 99.0687 97.3131 101.567
61 31 1 102.012 100.052 99.6441
62 31 1 102.125 99.3599 98.6694
63 32 1 99.1982 100.118 102.432
64 32 1 98.4748 99.4547 101.744
65 33 1 100.371 97.752 97.7449
66 33 1 99.8154 98.4524 102.934
67 34 1 101.725 98.5181 98.0603
68 34 1 101.203 97.608 98.671
69 35 1 97.5625 101.332 101.781
70 35 1 97.9476 100.372 101.254
71 36 1 100.101 100.559 97.2508
72 36 1 99.5992 101.119 102.211
73 37 1 99.3574 101.896 102.948
74 37 1 98.5431 101.691 102.156
75 38 1 97.5256 99.4688 102.241
76 38 1 102.832 100.222 101.504
77 39 1 99.4061 102.926 97.3919
78 39 1 99.9112 102.053 97.9658
79 40 1 101.325 98.5712 100.209
80 40 1 100.331 98.1877 100.707
81 41 1 99.3519 102.497 100.745
82 41 1 100.192 97.1206 101.32
83 42 1 98.9271 102.334 98.1351
84 42 1 98.572 102.321 99.2447
85 43 1 100.419 99.1998 100.201
86 43 1 100.982 98.9105 101.226
87 44 1 100.471 99.8197 101.185
88 44 1 101.339 99.6371 100.366
89 45 1 100.685 98.8104 97.4934
90 45 1 99.8096 99.5475 97.1561
91 46 1 102.886 99.5073 99.3573
92 46 1 97.2757 99.666 98.26
93 47 1 98.9089 97.1203 99.9222
94 47 1 99.579 102.64 98.9697
95 48 1 98.3368 99.4681 98.1698
96 48 1 97.5656 99.0356 97.4145
97 49 1 97.7508 99.4258 100.986
98 49 1 97.9577 100.288 100.163
99 50 1 97.9368 99.9272 99.1414
100 50 1 98.9721 100.22 99.5765
101 51 1 97.3354 101.661 98.9012
102 51 1 102.307 101.214 99.4496
103 52 1 97.2205 100.88 100.729
104 52 1 97.1274 100.53 99.5627
105 53 1 99.9634 97.7528 98.7359
106 53 1 98.7994 97.3756 98.7367
107 54 1 100.01 97.2765 100.189
108 54 1 99.8574 102.105 99.8559
109 55 1 100.852 97.4312 102.427
110 55 1 101.977 97.8546 102.368
111 56 1 97.4537 100.702 98.5386
112 56 1 98.5825 100.49 98.5359
113 57 1 97.2113 100.036 97.1828
114 57 1 102.469 99.1594 97.6763
115 58 1 97.4334 102.589 97.2575
116 58 1 97.4109 97.8005 102.789
117 59 1 97.4616 101.734 97.9029
118 59 1 102.362 102.097 97.4929
119 60 1 97.8416 98.8557 98.8684
120 60 1 97.7539 99.1994 99.9879
121 61 1 100.2 100.268 102.163
122 61 1 100.641 101.268 101.822
123 62 1 101.168 102.616 101.284
124 62 1 102.311 102.336 101.386
125 63 1 98.3383 101.529 98.4832
126 63 1 98.0245 100.677 97.6665
127 64 1 102.812 100.887 97.6614
128 64 1 102.318 101.577 98.4445
129 65 1 99.2367 99.5657 98.6886
130 65 1 99.5651 100.62 98.6978
131 66 1 99.3418 97.8459 100.758
132 66 1 99.4001 98.9053 100.217
133 67 1 99.4327 99.9241 101.417
134 67 1 98.7696 100.786 101.72
135 68 1 97.544 102.636 99.2952
136 68 1 97.5844 97.6323 100.003
137 69 1 100.097 99.9063 99.2597
138 69 1 99.7145 99.9719 100.37
139 70 1 102.279 99.7717 102.283
140 70 1 101.631 99.0057 97.0418
141 71 1 101.824 101.198 97.5929
142 71 1 100.998 101.872 98.0264
143 72 1 100.514 102.819 98.3693
144 72 1 101.608 102.462 98.6848
145 73 1 99.4163 97.9913 99.6072
146 73 1 100.622 98.1025 99.644
147 74 1 99.8766 98.8579 99.2355
148 74 1 98.7258 99.1938 99.5173
149 75 1 100.294 99.2611 102.096
150 75 1 99.1963 99.0342 102.346
151 76 1 100.619 100.293 100.024
152 76 1 101.204 100.198 98.9409
153 77 1 101.441 101.197 98.7771
154 77 1 100.499 101.972 98.9597
155 78 1 101.92 102.587 100.45
156 78 1 100.759 102.373 100.323
157 79 1 101.45 101.956 99.6314
158 79 1 101.719 97.1788 99.5732
159 80 1 101.744 102.757 102.183
160 80 1 101.432 101.977 102.924
161 81 2 98.2014 98.5971 102.619
162 82 2 97.8122 97.7771 98.8217
163 83 2 101.153 97.5482 100.402
164 84 2 99.078 100.157 97.6892
165 85 2 101.272 99.1842 99.2886
166 86 2 98.3277 97.302 97.3958
167 87 2 102.813 99.1401 101.459
168 88 2 98.3526 102.481 101.351
169 89 2 98.4084 98.1424 99.6228
170 90 2 99.4277 101.601 98.9553
171 91 2 102.134 100.62 100.663
172 92 2 98.0658 102.463 100.32
173 93 2 99.5812 102.219 101.844
174 94 2 99.8186 100.847 101.09
175 95 2 100.739 98.5251 98.6584
176 96 2 102.872 98.477 98.4229
177 97 2 102.718 98.8044 102.514
178 98 2 100.921 99.7901 97.148
179 99 2 97.4413 101.677 99.9446
180 100 2 101.437 102.841 97.7112
181 101 2 102.646 102.02 102.395
182 102 2 98.8523 98.4915 98.6841
183 103 2 101.472 101.656 100.833
184 104 2 100.33 101.555 102.959
185 105 2 102.458 102.244 99.4221
186 106 2 100.642 102.912 99.4093
187 107 2 99.6287 100.935 99.8633
188 108 2 97.9873 97.5331 101.965
189 109 2 98.7156 99.5786 100.646
190 110 2 101.987 100.061 97.4541
191 111 2 98.2078 101.062 99.4132
192 112 2 100.635 102.241 102.124
193 113 2 102.581 100.882 102.497
194 114 2 102.361 100.407 98.6734
195 115 2 100.529 102.61 97.2155
196 116 2 100.337 101.102 98.1527
197 117 2 98.8636 100.651 100.632
198 118 2 101.171 100.487 97.9426
199 119 2 100.01 98.0493 101.853
200 120 2 99.7615 98.8917 101.275
ITEM: TIMESTEP
1000
ITEM: NUMBER OF ATOMS
200
ITEM: BOX BOUNDS pp pp pp
9.7009396677750075e+01 1.0299060332224992e+02
9.7039153677996751e+01 1.0296084632200325e+02
9.7039153677996751e+01 1.0296084632200325e+02
ITEM: ATOMS id mol type x y z
1 1 1 102.811 99.8548 100.479
2 1 1 101.963 99.6811 101.265
3 2 1 100.961 98.4925 102.429
4 2 1 101.215 99.6434 101.99
5 3 1 100.213 99.8373 98.1749
6 3 1 101.333 99.4756 98.085
7 4 1 98.2641 99.773 102.944
8 4 1 98.9703 98.9383 97.4366
9 5 1 98.9027 98.3549 101.593
10 5 1 97.768 98.5995 101.495
11 6 1 102.8 97.1742 102.117
12 6 1 102.071 97.4764 101.223
13 7 1 98.9889 97.8893 102.594
14 7 1 98.6936 102.722 102.455
15 8 1 101.704 100.541 101.795
16 8 1 102.481 101.318 101.467
17 9 1 101.224 100.84 102.713
18 9 1 101.604 101.694 101.935
19 10 1 101.032 100.654 100.962
20 10 1 101.386 100.931 99.8648
21 11 1 102.796 102.59 98.3348
22 11 1 97.9526 102.632 98.3455
23 12 1 101.829 98.8355 101.93
24 12 1 102.806 98.1085 101.708
25 13 1 98.6859 100.959 102.897
26 13 1 97.747 100.48 102.329
27 14 1 98.1057 101.423 100.849
28 14 1 98.8946 101.663 100.049
29 15 1 102.776 97.4681 99.2792
30 15 1 102.936 102.728 100.262
31 16 1 100.267 101.928 101.132
32 16 1 99.113 101.596 101.129
33 17 1 97.1296 98.5007 100.643
34 17 1 97.2372 97.364 101.103
35 18 1 102.251 99.0389 100.057
36 18 1 101.985 98.2599 99.1797
37 19 1 97.5274 101.413 102.841
38 19 1 97.6854 102.394 102.182
39 20 1 102.473 98.1533 97.3947
40 20 1 101.366 97.941 97.3546
41 21 1 99.7832 98.8709 98.0757
42 21 1 99.1948 97.8932 97.7831
43 22 1 98.3122 101.955 97.3732
44 22 1 99.2003 101.235 97.8556
45 23 1 98.1477 98.2858 97.7563
46 23 1 97.2353 97.5443 97.9246
47 24 1 102.059 98.4938 100.97
48 24 1 101.148 97.8543 101.472
49 25 1 100.453 100.904 99.2019
50 25 1 100.513 101.374 100.277
51 26 1 97.0616 98.4943 99.5454
52 26 1 102.322 97.8198 100.193
53 27 1 102.236 97.563 98.3091
54 27 1 102.353 97.1356 97.1699
55 28 1 98.2859 97.4766 100.819
56 28 1 98.4174 98.5591 100.613
57 29 1 97.3429 102.146 101.077
58 29 1 102.453 101.689 100.44
59 30 1 99.7991 97.2075 102.384
60 30 1 99.031 97.2908 101.555
61 31 1 101.981 100.078 99.6361
62 31 1 102.181 99.3324 98.7054
63 32 1 99.1706 100.122 102.453
64 32 1 98.4437 99.4725 101.721
65 33 1 100.343 97.6503 97.6669
66 33 1 99.8378 98.4236 102.923
67 34 1 101.783 98.5091 98.1401
68 34 1 101.197 97.636 98.5915
69 35 1 97.5453 101.343 101.782
70 35 1 97.9667 100.417 101.207
71 36 1 100.124 100.505 97.2811
72 36 1 99.6709 101.14 102.261
73 37 1 99.3951 101.899 102.988
74 37 1 98.5112 101.711 102.216
75 38 1 97.4908 99.4289 102.242
76 38 1 102.941 100.254 101.562
77 39 1 99.392 102.909 97.4023
78 39 1 99.9355 102.021 97.9944
79 40 1 101.348 98.553 100.22
80 40 1 100.336 98.1513 100.677
81 41 1 99.3079 102.53 100.698
82 41 1 100.18 97.1313 101.336
83 42 1 98.9277 102.331 98.1394
84 42 1 98.4819 102.16 99.1895
85 43 1 100.486 99.1251 100.093
86 43 1 100.998 98.8759 101.195
87 44 1 100.473 99.7734 101.174
88 44 1 101.382 99.617 100.414
89 45 1 100.702 98.8126 97.5267
90 45 1 99.8028 99.5331 97.1828
91 46 1 102.915 99.6159 99.4248
92 46 1 97.2505 99.686 98.283
93 47 1 98.8907 97.0826 99.8398
94 47 1 99.6254 102.608 98.9219
95 48 1 98.3059 99.4805 98.1167
96 48 1 97.503 99.0483 97.4022
97 49 1 97.657 99.4741 100.937
98 49 1 97.965 100.386 100.168
99 50 1 97.9106 99.9287 99.1796
100 50 1 98.9407 100.208 99.6083
101 51 1 97.4008 101.73 98.9405
102 51 1 102.346 101.281 99.4508
103 52 1 97.1723 100.917 100.763
104 52 1 97.12 100.647 99.6042
105 53 1 99.9422 97.7007 98.6819
106 53 1 98.7875 97.3877 98.7139
107 54 1 100.026 97.2426 100.207
108 54 1 99.8645 102.064 99.809
109 55 1 100.821 97.4607 102.46
110 55 1 101.923 97.8903 102.323
111 56 1 97.4417 100.71 98.5581
112 56 1 98.5655 100.461 98.5565
113 57 1 97.1503 100.008 97.1054
114 57 1 102.491 99.1824 97.725
115 58 1 97.3684 102.576 97.2879
116 58 1 97.3751 97.8309 102.834
117 59 1 97.4128 101.684 97.9
118 59 1 102.403 102.047 97.5028
119 60 1 97.8248 98.8857 98.8456
120 60 1 97.7503 99.2055 99.9807
121 61 1 100.211 100.232 102.131
122 61 1 100.668 101.232 101.854
123 62 1 101.176 102.636 101.305
124 62 1 102.351 102.351 101.392
125 63 1 98.3466 101.49 98.3867
126 63 1 97.9483 100.575 97.6604
127 64 1 102.849 100.821 97.6783
128 64 1 102.45 101.594 98.4964
129 65 1 99.2048 99.5711 98.6409
130 65 1 99.5876 100.601 98.6668
131 66 1 99.3017 97.8437 100.738
132 66 1 99.4609 98.8526 100.152
133 67 1 99.4143 99.9171 101.407
134 67 1 98.773 100.783 101.734
135 68 1 97.5573 102.706 99.3578
136 68 1 97.5223 97.6973 100.114
137 69 1 100.063 99.8929 99.2675
138 69 1 99.707 99.9206 100.374
139 70 1 102.327 99.7924 102.317
140 70 1 101.719 99.0201 97.0747
141 71 1 101.863 101.192 97.7165
142 71 1 101.001 101.872 97.9811
143 72 1 100.555 102.775 98.3647
144 72 1 101.654 102.37 98.6764
145 73 1 99.4297 97.9373 99.5304
146 73 1 100.583 98.129 99.6165
147 74 1 99.8204 98.8692 99.1876
148 74 1 98.6968 99.1456 99.4714
149 75 1 100.289 99.1881 102.069
150 75 1 99.2047 99.0667 102.298
151 76 1 100.645 100.238 100.05
152 76 1 101.163 100.198 98.9316
153 77 1 101.46 101.28 98.7492
154 77 1 100.509 101.913 98.9689
155 78 1 101.905 102.611 100.431
156 78 1 100.767 102.375 100.355
157 79 1 101.48 101.994 99.6602
158 79 1 101.763 97.2138 99.5072
159 80 1 101.71 102.801 102.196
160 80 1 101.479 101.972 102.943
161 81 2 98.2295 98.6208 102.629
162 82 2 97.7623 97.8008 98.7753
163 83 2 101.189 97.5332 100.418
164 84 2 99.1065 100.098 97.7148
165 85 2 101.357 99.2223 99.2795
166 86 2 98.2489 97.2552 97.341
167 87 2 102.833 99.2053 101.526
168 88 2 98.3144 102.48 101.346
169 89 2 98.3869 98.1116 99.5463
170 90 2 99.3546 101.555 98.9471
171 91 2 102.122 100.659 100.651
172 92 2 98.037 102.448 100.297
173 93 2 99.5674 102.236 101.841
174 94 2 99.8557 100.828 101.104
175 95 2 100.742 98.5888 98.6613
176 96 2 102.957 98.4452 98.4385
177 97 2 102.693 98.782 102.535
178 98 2 100.933 99.7204 97.0627
179 99 2 97.4007 101.669 99.9522
180 100 2 101.477 102.76 97.7344
181 101 2 102.608 102.088 102.378
182 102 2 98.8642 98.4791 98.5543
183 103 2 101.478 101.646 100.868
184 104 2 100.395 101.525 103.058
185 105 2 102.532 102.305 99.4188
186 106 2 100.668 102.897 99.3971
187 107 2 99.6444 100.921 99.8508
188 108 2 97.9783 97.6113 102.007
189 109 2 98.6479 99.5877 100.607
190 110 2 101.977 100.027 97.495
191 111 2 98.2458 101.061 99.385
192 112 2 100.637 102.261 102.146
193 113 2 102.62 100.927 102.479
194 114 2 102.31 100.438 98.6518
195 115 2 100.493 102.594 97.2123
196 116 2 100.317 101.076 98.1804
197 117 2 98.8699 100.664 100.674
198 118 2 101.107 100.529 97.8747
199 119 2 100.059 98.129 101.84
200 120 2 99.7479 98.8817 101.178
ITEM: TIMESTEP
2000
ITEM: NUMBER OF ATOMS
200
ITEM: BOX BOUNDS pp pp pp
9.6979340614678989e+01 1.0302065938532101e+02
9.7039153677996751e+01 1.0296084632200325e+02
9.7039153677996751e+01 1.0296084632200325e+02
ITEM: ATOMS id mol type x y z
1 1 1 102.841 99.8428 100.446
2 1 1 102.037 99.6751 101.279
3 2 1 100.967 98.565 102.392
4 2 1 101.18 99.69 101.921
5 3 1 100.19 99.8999 98.1488
6 3 1 101.26 99.4668 98.1081
7 4 1 98.271 99.7683 102.902
8 4 1 98.903 98.9021 97.4777
9 5 1 98.8904 98.3245 101.533
10 5 1 97.7519 98.6022 101.524
11 6 1 102.9 97.1882 102.11
12 6 1 102.157 97.473 101.235
13 7 1 98.9689 97.8477 102.59
14 7 1 98.7131 102.639 102.459
15 8 1 101.709 100.564 101.815
16 8 1 102.503 101.345 101.417
17 9 1 101.2 100.865 102.714
18 9 1 101.619 101.665 101.911
19 10 1 100.992 100.698 101.014
20 10 1 101.393 100.953 99.8801
21 11 1 102.789 102.604 98.3474
22 11 1 97.9479 102.627 98.3829
23 12 1 101.897 98.8588 101.919
24 12 1 102.891 98.1636 101.656
25 13 1 98.7675 100.884 102.879
26 13 1 97.7528 100.57 102.359
27 14 1 98.0173 101.417 100.842
28 14 1 98.8639 101.636 100.073
29 15 1 102.773 97.4402 99.2204
30 15 1 102.947 102.751 100.273
31 16 1 100.204 101.938 101.075
32 16 1 99.0581 101.566 101.175
33 17 1 97.1035 98.4549 100.612
34 17 1 97.234 97.3556 101.101
35 18 1 102.254 99.0496 100.028
36 18 1 102.038 98.2726 99.1584
37 19 1 97.4479 101.444 102.89
38 19 1 97.6402 102.434 102.238
39 20 1 102.527 98.1493 97.3699
40 20 1 101.39 97.9606 97.3231
41 21 1 99.8327 98.8758 98.0868
42 21 1 99.2135 97.8971 97.7925
43 22 1 98.2685 101.969 97.3991
44 22 1 99.1865 101.278 97.8868
45 23 1 98.1472 98.2554 97.8204
46 23 1 97.2196 97.5784 97.9505
47 24 1 102.092 98.5124 100.95
48 24 1 101.19 97.8843 101.454
49 25 1 100.461 100.935 99.1948
50 25 1 100.521 101.346 100.28
51 26 1 97.0075 98.4338 99.4849
52 26 1 102.367 97.7571 100.184
53 27 1 102.225 97.5623 98.2743
54 27 1 102.404 97.1454 97.1805
55 28 1 98.2739 97.4178 100.831
56 28 1 98.3642 98.5454 100.675
57 29 1 97.2757 102.176 101.079
58 29 1 102.449 101.713 100.44
59 30 1 99.8371 97.1257 102.37
60 30 1 98.9935 97.2949 101.628
61 31 1 102.059 100.095 99.6481
62 31 1 102.161 99.3574 98.6689
63 32 1 99.2296 99.9889 102.454
64 32 1 98.4679 99.4277 101.717
65 33 1 100.442 97.7221 97.7217
66 33 1 99.8338 98.4034 102.952
67 34 1 101.837 98.519 98.0934
68 34 1 101.239 97.5967 98.6194
69 35 1 97.476 101.412 101.831
70 35 1 97.9131 100.395 101.303
71 36 1 100.142 100.5 97.2204
72 36 1 99.6481 101.119 102.26
73 37 1 99.3494 101.917 102.96
74 37 1 98.4979 101.653 102.195
75 38 1 97.5103 99.5277 102.205
76 38 1 102.93 100.323 101.578
77 39 1 99.3723 102.926 97.3784
78 39 1 99.9192 102.057 97.9508
79 40 1 101.36 98.5322 100.216
80 40 1 100.418 98.1033 100.701
81 41 1 99.2672 102.546 100.765
82 41 1 100.203 97.1217 101.275
83 42 1 98.9457 102.374 98.1848
84 42 1 98.4748 102.166 99.2311
85 43 1 100.42 99.1632 100.199
86 43 1 101.028 98.9029 101.214
87 44 1 100.44 99.7315 101.094
88 44 1 101.419 99.6406 100.434
89 45 1 100.749 98.7607 97.531
90 45 1 99.8401 99.4621 97.1601
91 46 1 102.938 99.5627 99.3796
92 46 1 97.2551 99.6851 98.2499
93 47 1 98.8279 97.0922 99.8391
94 47 1 99.6174 102.644 99.0095
95 48 1 98.3171 99.5089 98.1372
96 48 1 97.5269 99.0371 97.3722
97 49 1 97.669 99.4389 100.903
98 49 1 97.9215 100.408 100.226
99 50 1 97.906 99.9205 99.0961
100 50 1 98.9752 100.204 99.6082
101 51 1 97.2852 101.681 98.9701
102 51 1 102.332 101.237 99.5048
103 52 1 97.1119 100.854 100.731
104 52 1 97.0569 100.606 99.5739
105 53 1 99.9919 97.772 98.6905
106 53 1 98.8377 97.3714 98.7105
107 54 1 100.014 97.2375 100.18
108 54 1 99.8009 102.058 99.838
109 55 1 100.869 97.4839 102.44
110 55 1 102.01 97.9054 102.286
111 56 1 97.409 100.72 98.5489
112 56 1 98.5638 100.46 98.5556
113 57 1 97.1159 100.038 97.1347
114 57 1 102.601 99.1454 97.7128
115 58 1 97.3567 102.62 97.2987
116 58 1 97.3965 97.8417 102.858
117 59 1 97.3975 101.715 97.9736
118 59 1 102.438 102.049 97.477
119 60 1 97.8299 98.8543 98.8355
120 60 1 97.7327 99.1245 99.9252
121 61 1 100.269 100.252 102.09
122 61 1 100.659 101.284 101.836
123 62 1 101.181 102.642 101.235
124 62 1 102.293 102.339 101.34
125 63 1 98.2985 101.503 98.4236
126 63 1 97.977 100.663 97.6062
127 64 1 102.86 100.887 97.6683
128 64 1 102.386 101.631 98.4695
129 65 1 99.2059 99.5736 98.6584
130 65 1 99.5708 100.629 98.694
131 66 1 99.3308 97.8116 100.728
132 66 1 99.404 98.8677 100.233
133 67 1 99.4149 99.8606 101.396
134 67 1 98.7922 100.72 101.8
135 68 1 97.5177 102.666 99.375
136 68 1 97.5511 97.6403 100.11
137 69 1 100.074 99.8861 99.2479
138 69 1 99.7065 99.9356 100.375
139 70 1 102.261 99.7948 102.39
140 70 1 101.755 98.9828 97.0491
141 71 1 101.862 101.159 97.6169
142 71 1 100.995 101.846 97.9532
143 72 1 100.518 102.804 98.3505
144 72 1 101.595 102.434 98.7037
145 73 1 99.4021 97.9661 99.6042
146 73 1 100.541 98.1885 99.6369
147 74 1 99.8419 98.8658 99.191
148 74 1 98.6948 99.1711 99.4733
149 75 1 100.227 99.2341 102.098
150 75 1 99.1631 98.9187 102.346
151 76 1 100.641 100.251 100.036
152 76 1 101.199 100.208 98.9117
153 77 1 101.475 101.222 98.7667
154 77 1 100.536 101.959 98.9312
155 78 1 101.904 102.665 100.4
156 78 1 100.755 102.352 100.302
157 79 1 101.461 101.988 99.6368
158 79 1 101.804 97.229 99.4887
159 80 1 101.785 102.809 102.146
160 80 1 101.447 101.935 102.925
161 81 2 98.177 98.5983 102.595
162 82 2 97.7828 97.7747 98.819
163 83 2 101.165 97.5112 100.324
164 84 2 99.1269 100.077 97.7038
165 85 2 101.283 99.252 99.3144
166 86 2 98.2708 97.2363 97.4111
167 87 2 102.902 99.2018 101.467
168 88 2 98.258 102.439 101.384
169 89 2 98.3846 98.1169 99.5851
170 90 2 99.3786 101.596 98.9537
171 91 2 102.091 100.685 100.659
172 92 2 98.0125 102.455 100.286
173 93 2 99.582 102.205 101.84
174 94 2 99.8402 100.791 101.131
175 95 2 100.825 98.5258 98.6941
176 96 2 102.993 98.4862 98.4526
177 97 2 102.788 98.8124 102.499
178 98 2 100.955 99.7234 97.0418
179 99 2 97.3443 101.699 99.9691
180 100 2 101.531 102.777 97.693
181 101 2 102.639 102.121 102.364
182 102 2 98.8293 98.4842 98.6445
183 103 2 101.48 101.661 100.817
184 104 2 100.354 101.547 102.992
185 105 2 102.465 102.286 99.4133
186 106 2 100.657 102.929 99.4093
187 107 2 99.6872 100.89 99.8686
188 108 2 97.9615 97.6157 101.977
189 109 2 98.6393 99.5579 100.585
190 110 2 102.029 100.019 97.5792
191 111 2 98.1652 101.1 99.4495
192 112 2 100.663 102.315 102.119
193 113 2 102.608 100.961 102.544
194 114 2 102.414 100.445 98.7041
195 115 2 100.557 102.634 97.2043
196 116 2 100.268 101.101 98.1371
197 117 2 98.8602 100.612 100.641
198 118 2 101.074 100.506 97.8215
199 119 2 100.04 98.0693 101.836
200 120 2 99.7783 98.8181 101.244
ITEM: TIMESTEP
3000
ITEM: NUMBER OF ATOMS
200
ITEM: BOX BOUNDS pp pp pp
9.6948982483152150e+01 1.0305101751684785e+02
9.7039153677996751e+01 1.0296084632200325e+02
9.7039153677996751e+01 1.0296084632200325e+02
ITEM: ATOMS id mol type x y z
1 1 1 102.865 99.8284 100.481
2 1 1 102.024 99.6462 101.283
3 2 1 100.946 98.519 102.385
4 2 1 101.226 99.6598 101.985
5 3 1 100.209 99.9025 98.1462
6 3 1 101.327 99.5053 98.1314
7 4 1 98.2425 99.7631 102.992
8 4 1 98.9869 98.9341 97.3934
9 5 1 98.8383 98.3376 101.519
10 5 1 97.7087 98.6077 101.551
11 6 1 102.95 97.207 102.15
12 6 1 102.169 97.435 101.242
13 7 1 98.9609 97.8615 102.565
14 7 1 98.5173 102.681 102.411
15 8 1 101.752 100.575 101.809
16 8 1 102.503 101.329 101.46
17 9 1 101.192 100.959 102.69
18 9 1 101.647 101.727 101.921
19 10 1 101.023 100.644 101.025
20 10 1 101.411 100.927 99.9032
21 11 1 102.842 102.612 98.3179
22 11 1 97.9306 102.603 98.3453
23 12 1 101.866 98.8058 101.906
24 12 1 102.901 98.1425 101.718
25 13 1 98.6821 100.91 102.939
26 13 1 97.7298 100.477 102.339
27 14 1 98.0076 101.371 100.789
28 14 1 98.8738 101.636 100.057
29 15 1 102.846 97.4453 99.1795
30 15 1 102.955 102.761 100.278
31 16 1 100.148 102.029 101.024
32 16 1 99.0419 101.614 101.158
33 17 1 97.1281 98.4697 100.631
34 17 1 97.2419 97.338 101.097
35 18 1 102.311 99.0262 100.058
36 18 1 102.024 98.2348 99.2043
37 19 1 97.4692 101.439 102.841
38 19 1 97.5498 102.39 102.153
39 20 1 102.541 98.1806 97.3811
40 20 1 101.455 98.0241 97.2834
41 21 1 99.7809 98.8143 98.1198
42 21 1 99.2023 97.8456 97.7945
43 22 1 98.2869 102.001 97.3796
44 22 1 99.1232 101.271 97.8985
45 23 1 98.1992 98.2613 97.8026
46 23 1 97.1922 97.5619 97.904
47 24 1 102.1 98.5015 100.984
48 24 1 101.174 97.8575 101.514
49 25 1 100.492 100.901 99.1818
50 25 1 100.515 101.3 100.318
51 26 1 97.0728 98.4306 99.5155
52 26 1 102.422 97.8013 100.193
53 27 1 102.243 97.5763 98.2853
54 27 1 102.368 97.1459 97.1362
55 28 1 98.313 97.4385 100.795
56 28 1 98.2559 98.6094 100.669
57 29 1 97.2424 102.152 101.067
58 29 1 102.415 101.738 100.451
59 30 1 99.87 97.2681 102.368
60 30 1 98.9523 97.3131 101.591
61 31 1 102.106 100.043 99.6875
62 31 1 102.245 99.3876 98.7492
63 32 1 99.1827 100.08 102.478
64 32 1 98.4296 99.4979 101.749
65 33 1 100.483 97.772 97.7729
66 33 1 99.8623 98.429 102.914
67 34 1 101.816 98.5623 98.1284
68 34 1 101.245 97.649 98.6733
69 35 1 97.4013 101.312 101.744
70 35 1 97.9456 100.4 101.234
71 36 1 100.14 100.508 97.2538
72 36 1 99.6252 101.114 102.221
73 37 1 99.2943 101.821 102.934
74 37 1 98.3627 101.636 102.204
75 38 1 97.4765 99.4744 102.231
76 38 1 103.026 100.241 101.54
77 39 1 99.3035 102.855 97.2671
78 39 1 99.9167 102.075 97.9386
79 40 1 101.404 98.4994 100.177
80 40 1 100.42 98.1109 100.687
81 41 1 99.2641 102.593 100.714
82 41 1 100.196 97.1507 101.291
83 42 1 98.9616 102.354 98.1596
84 42 1 98.4522 102.158 99.2091
85 43 1 100.436 99.1426 100.114
86 43 1 101.022 98.8584 101.181
87 44 1 100.454 99.7614 101.18
88 44 1 101.413 99.5869 100.476
89 45 1 100.743 98.8838 97.4994
90 45 1 99.8346 99.5007 97.1853
91 46 1 103.031 99.58 99.4075
92 46 1 97.3268 99.6238 98.2526
93 47 1 98.8345 97.0494 99.866
94 47 1 99.6158 102.667 99.0273
95 48 1 98.3612 99.3902 98.1068
96 48 1 97.4826 98.9254 97.419
97 49 1 97.635 99.4861 100.96
98 49 1 97.8638 100.323 100.191
99 50 1 97.89 99.9016 99.1536
100 50 1 98.9096 100.158 99.6163
101 51 1 97.2512 101.682 98.9643
102 51 1 102.374 101.218 99.5024
103 52 1 97.0828 100.884 100.709
104 52 1 97.1036 100.602 99.5585
105 53 1 99.9683 97.7477 98.7059
106 53 1 98.8234 97.3815 98.7667
107 54 1 100.071 97.2357 100.189
108 54 1 99.8349 102.052 99.8801
109 55 1 100.929 97.4489 102.507
110 55 1 102.044 97.8815 102.35
111 56 1 97.3667 100.702 98.549
112 56 1 98.525 100.426 98.4915
113 57 1 97.1121 99.9827 97.1615
114 57 1 102.594 99.1575 97.725
115 58 1 97.2696 102.643 97.2337
116 58 1 97.3731 97.8859 102.836
117 59 1 97.3368 101.758 97.9075
118 59 1 102.372 102.085 97.5156
119 60 1 97.8005 98.8204 98.8116
120 60 1 97.7258 99.1943 99.9648
121 61 1 100.341 100.324 102.108
122 61 1 100.675 101.39 101.721
123 62 1 101.204 102.648 101.247
124 62 1 102.349 102.343 101.36
125 63 1 98.2229 101.49 98.392
126 63 1 97.8621 100.637 97.586
127 64 1 102.861 100.868 97.6224
128 64 1 102.44 101.579 98.4667
129 65 1 99.2453 99.5355 98.657
130 65 1 99.563 100.623 98.7128
131 66 1 99.3498 97.8003 100.716
132 66 1 99.3908 98.8611 100.184
133 67 1 99.4226 99.8976 101.457
134 67 1 98.7526 100.753 101.769
135 68 1 97.4774 102.628 99.3473
136 68 1 97.5223 97.646 100.029
137 69 1 100.04 99.8678 99.2804
138 69 1 99.7135 99.9059 100.429
139 70 1 102.422 99.7634 102.308
140 70 1 101.771 99.0379 97.0814
141 71 1 101.881 101.188 97.5253
142 71 1 100.986 101.84 97.9944
143 72 1 100.512 102.8 98.3758
144 72 1 101.622 102.395 98.6871
145 73 1 99.3875 97.9264 99.5861
146 73 1 100.541 98.1521 99.6138
147 74 1 99.8367 98.8345 99.2054
148 74 1 98.6726 99.1386 99.4411
149 75 1 100.278 99.2784 102.132
150 75 1 99.1785 98.9607 102.264
151 76 1 100.655 100.228 100.088
152 76 1 101.274 100.19 98.999
153 77 1 101.487 101.223 98.7731
154 77 1 100.546 101.923 99.0311
155 78 1 101.876 102.623 100.401
156 78 1 100.794 102.357 100.241
157 79 1 101.585 101.934 99.6648
158 79 1 101.852 97.1938 99.4817
159 80 1 101.769 102.789 102.135
160 80 1 101.404 102.058 102.925
161 81 2 98.2168 98.6238 102.624
162 82 2 97.781 97.7368 98.7843
163 83 2 101.245 97.5301 100.4
164 84 2 99.1506 100.066 97.7255
165 85 2 101.346 99.2109 99.3106
166 86 2 98.2029 97.2989 97.3765
167 87 2 102.919 99.1668 101.499
168 88 2 98.2436 102.471 101.351
169 89 2 98.3436 98.1336 99.591
170 90 2 99.4747 101.626 98.9749
171 91 2 102.134 100.696 100.684
172 92 2 98.0025 102.471 100.327
173 93 2 99.5099 102.245 101.852
174 94 2 99.8482 100.796 101.185
175 95 2 100.761 98.5799 98.6589
176 96 2 102.954 98.4798 98.453
177 97 2 102.779 98.8069 102.537
178 98 2 100.99 99.8377 97.0604
179 99 2 97.2861 101.682 99.9651
180 100 2 101.436 102.877 97.7062
181 101 2 102.679 102.099 102.375
182 102 2 98.8814 98.4278 98.6505
183 103 2 101.448 101.629 100.87
184 104 2 100.348 101.553 102.968
185 105 2 102.545 102.265 99.4231
186 106 2 100.696 102.945 99.3545
187 107 2 99.6917 100.885 99.8507
188 108 2 97.9422 97.641 101.967
189 109 2 98.6703 99.5359 100.611
190 110 2 102.037 100.06 97.5034
191 111 2 98.1741 101.037 99.394
192 112 2 100.602 102.343 102.141
193 113 2 102.673 100.888 102.486
194 114 2 102.422 100.42 98.7029
195 115 2 100.491 102.584 97.2337
196 116 2 100.237 101.117 98.1353
197 117 2 98.8767 100.64 100.665
198 118 2 101.067 100.542 97.9246
199 119 2 100.018 98.1082 101.794
200 120 2 99.7936 98.8666 101.166
ITEM: TIMESTEP
4000
ITEM: NUMBER OF ATOMS
200
ITEM: BOX BOUNDS pp pp pp
9.6918319247331112e+01 1.0308168075266889e+02
9.7039153677996751e+01 1.0296084632200325e+02
9.7039153677996751e+01 1.0296084632200325e+02
ITEM: ATOMS id mol type x y z
1 1 1 102.963 99.8677 100.494
2 1 1 102.024 99.6741 101.249
3 2 1 100.95 98.5064 102.366
4 2 1 101.264 99.634 102.004
5 3 1 100.212 99.9289 98.2019
6 3 1 101.325 99.5182 98.0815
7 4 1 98.1747 99.7876 103.019
8 4 1 98.9531 98.9476 97.4073
9 5 1 98.8394 98.3148 101.498
10 5 1 97.7048 98.5752 101.578
11 6 1 102.884 97.2092 102.161
12 6 1 102.184 97.5098 101.25
13 7 1 98.9222 97.856 102.58
14 7 1 98.5957 102.65 102.41
15 8 1 101.867 100.594 101.846
16 8 1 102.595 101.365 101.436
17 9 1 101.159 100.877 102.672
18 9 1 101.695 101.714 101.941
19 10 1 101.147 100.572 101.042
20 10 1 101.485 100.917 99.9262
21 11 1 102.846 102.582 98.2926
22 11 1 97.8535 102.612 98.276
23 12 1 101.902 98.7566 101.885
24 12 1 102.952 98.1408 101.668
25 13 1 98.7194 100.933 102.916
26 13 1 97.7609 100.523 102.385
27 14 1 98.016 101.397 100.798
28 14 1 98.8823 101.72 100.089
29 15 1 102.829 97.436 99.1955
30 15 1 102.967 102.745 100.227
31 16 1 100.192 101.919 101.076
32 16 1 99.0376 101.575 101.183
33 17 1 97.051 98.467 100.607
34 17 1 97.1319 97.3147 101.092
35 18 1 102.357 99.1039 100.043
36 18 1 102.081 98.2663 99.1787
37 19 1 97.4834 101.471 102.801
38 19 1 97.5676 102.447 102.2
39 20 1 102.612 98.1991 97.3888
40 20 1 101.439 98.0102 97.301
41 21 1 99.763 98.8526 98.0842
42 21 1 99.1834 97.8906 97.7553
43 22 1 98.2496 102.024 97.3977
44 22 1 99.0854 101.261 97.9214
45 23 1 98.1384 98.3503 97.8644
46 23 1 97.2101 97.5789 97.9292
47 24 1 102.174 98.4849 100.93
48 24 1 101.192 97.8817 101.501
49 25 1 100.405 100.963 99.2243
50 25 1 100.585 101.28 100.35
51 26 1 97.0038 98.4362 99.4762
52 26 1 102.442 97.7715 100.157
53 27 1 102.256 97.601 98.2663
54 27 1 102.428 97.1438 97.1513
55 28 1 98.2338 97.4336 100.814
56 28 1 98.2106 98.5875 100.636
57 29 1 97.2397 102.137 101.069
58 29 1 102.518 101.684 100.441
59 30 1 99.8125 97.2612 102.365
60 30 1 98.9751 97.271 101.583
61 31 1 102.083 100.072 99.6171
62 31 1 102.205 99.3492 98.6983
63 32 1 99.1813 100.03 102.478
64 32 1 98.4163 99.454 101.801
65 33 1 100.524 97.7297 97.7215
66 33 1 99.8397 98.3835 102.947
67 34 1 101.794 98.5442 98.1338
68 34 1 101.239 97.6677 98.6583
69 35 1 97.4017 101.38 101.778
70 35 1 97.9292 100.413 101.313
71 36 1 100.146 100.468 97.2147
72 36 1 99.6419 101.123 102.241
73 37 1 99.2814 101.824 102.961
74 37 1 98.3718 101.625 102.225
75 38 1 97.4914 99.4547 102.225
76 38 1 103.045 100.275 101.559
77 39 1 99.3245 102.877 97.3401
78 39 1 99.8802 102.079 97.9565
79 40 1 101.444 98.5228 100.199
80 40 1 100.436 98.1278 100.716
81 41 1 99.3375 102.55 100.766
82 41 1 100.27 97.1096 101.339
83 42 1 98.8824 102.38 98.1692
84 42 1 98.439 102.162 99.2476
85 43 1 100.514 99.1127 100.149
86 43 1 101.018 98.8932 101.222
87 44 1 100.437 99.733 101.101
88 44 1 101.431 99.6203 100.407
89 45 1 100.73 98.8113 97.5246
90 45 1 99.806 99.481 97.1572
91 46 1 102.993 99.5685 99.3388
92 46 1 97.2236 99.6434 98.2277
93 47 1 98.8428 97.049 99.8866
94 47 1 99.6367 102.664 99.0163
95 48 1 98.3171 99.461 98.1837
96 48 1 97.4051 98.9707 97.4647
97 49 1 97.6372 99.4466 100.995
98 49 1 97.8812 100.331 100.191