ITEM: TIMESTEP
0
ITEM: NUMBER OF ATOMS
200
ITEM: BOX BOUNDS pp pp pp
9.7039153677996751e+01 1.0296084632200325e+02
9.7039153677996751e+01 1.0296084632200325e+02
9.7039153677996751e+01 1.0296084632200325e+02
ITEM: ATOMS id mol type x y z
1 1 1 102.811 99.8191 100.473
2 1 1 101.909 99.6119 101.231
3 2 1 100.91 98.4742 102.364
4 2 1 101.247 99.6476 102.087
5 3 1 100.186 99.9051 98.127
6 3 1 101.279 99.4644 98.1029
7 4 1 98.3119 99.7802 102.957
8 4 1 98.9785 98.9632 97.4794
9 5 1 98.9083 98.3901 101.61
10 5 1 97.764 98.5274 101.536
11 6 1 102.822 97.0965 102.068
12 6 1 102.078 97.4234 101.213
13 7 1 98.9746 97.8531 102.607
14 7 1 98.6739 102.672 102.443
15 8 1 101.692 100.563 101.752
16 8 1 102.498 101.292 101.435
17 9 1 101.193 100.882 102.666
18 9 1 101.622 101.702 101.936
19 10 1 100.991 100.688 100.989
20 10 1 101.397 100.94 99.8932
21 11 1 102.72 102.615 98.3423
22 11 1 97.9492 102.664 98.3234
23 12 1 101.794 98.7888 101.914
24 12 1 102.79 98.0784 101.732
25 13 1 98.7211 100.985 102.875
26 13 1 97.7886 100.474 102.312
27 14 1 98.0981 101.413 100.84
28 14 1 98.8715 101.689 100.014
29 15 1 102.668 97.4409 99.2246
30 15 1 102.935 102.722 100.214
31 16 1 100.237 101.907 101.086
32 16 1 99.0907 101.591 101.141
33 17 1 97.2429 98.4623 100.59
34 17 1 97.2419 97.3792 101.066
35 18 1 102.223 99.0322 100.032
36 18 1 101.923 98.2278 99.2005
37 19 1 97.6254 101.384 102.839
38 19 1 97.7186 102.351 102.151
39 20 1 102.481 98.1524 97.3598
40 20 1 101.324 97.963 97.301
41 21 1 99.8068 98.9134 98.1202
42 21 1 99.2397 97.9269 97.8185
43 22 1 98.3599 102.001 97.3282
44 22 1 99.168 101.267 97.9201
45 23 1 98.1733 98.3253 97.8387
46 23 1 97.3158 97.5591 97.8943
47 24 1 102.033 98.4729 100.944
48 24 1 101.115 97.8121 101.472
49 25 1 100.478 100.921 99.159
50 25 1 100.514 101.352 100.267
51 26 1 97.0592 98.463 99.4717
52 26 1 102.352 97.7638 100.202
53 27 1 102.219 97.6162 98.2841
54 27 1 102.386 97.1406 97.1347
55 28 1 98.2965 97.4625 100.782
56 28 1 98.4243 98.593 100.654
57 29 1 97.3633 102.15 101.107
58 29 1 102.426 101.663 100.422
59 30 1 99.8391 97.1666 102.38
60 30 1 99.0687 97.3131 101.567
61 31 1 102.012 100.052 99.6441
62 31 1 102.125 99.3599 98.6694
63 32 1 99.1982 100.118 102.432
64 32 1 98.4748 99.4547 101.744
65 33 1 100.371 97.752 97.7449
66 33 1 99.8154 98.4524 102.934
67 34 1 101.725 98.5181 98.0603
68 34 1 101.203 97.608 98.671
69 35 1 97.5625 101.332 101.781
70 35 1 97.9476 100.372 101.254
71 36 1 100.101 100.559 97.2508
72 36 1 99.5992 101.119 102.211
73 37 1 99.3574 101.896 102.948
74 37 1 98.5431 101.691 102.156
75 38 1 97.5256 99.4688 102.241
76 38 1 102.832 100.222 101.504
77 39 1 99.4061 102.926 97.3919
78 39 1 99.9112 102.053 97.9658
79 40 1 101.325 98.5712 100.209
80 40 1 100.331 98.1877 100.707
81 41 1 99.3519 102.497 100.745
82 41 1 100.192 97.1206 101.32
83 42 1 98.9271 102.334 98.1351
84 42 1 98.572 102.321 99.2447
85 43 1 100.419 99.1998 100.201
86 43 1 100.982 98.9105 101.226
87 44 1 100.471 99.8197 101.185
88 44 1 101.339 99.6371 100.366
89 45 1 100.685 98.8104 97.4934
90 45 1 99.8096 99.5475 97.1561
91 46 1 102.886 99.5073 99.3573
92 46 1 97.2757 99.666 98.26
93 47 1 98.9089 97.1203 99.9222
94 47 1 99.579 102.64 98.9697
95 48 1 98.3368 99.4681 98.1698
96 48 1 97.5656 99.0356 97.4145
97 49 1 97.7508 99.4258 100.986
98 49 1 97.9577 100.288 100.163
99 50 1 97.9368 99.9272 99.1414
100 50 1 98.9721 100.22 99.5765
101 51 1 97.3354 101.661 98.9012
102 51 1 102.307 101.214 99.4496
103 52 1 97.2205 100.88 100.729
104 52 1 97.1274 100.53 99.5627
105 53 1 99.9634 97.7528 98.7359
106 53 1 98.7994 97.3756 98.7367
107 54 1 100.01 97.2765 100.189
108 54 1 99.8574 102.105 99.8559
109 55 1 100.852 97.4312 102.427
110 55 1 101.977 97.8546 102.368
111 56 1 97.4537 100.702 98.5386
112 56 1 98.5825 100.49 98.5359
113 57 1 97.2113 100.036 97.1828
114 57 1 102.469 99.1594 97.6763
115 58 1 97.4334 102.589 97.2575
116 58 1 97.4109 97.8005 102.789
117 59 1 97.4616 101.734 97.9029
118 59 1 102.362 102.097 97.4929
119 60 1 97.8416 98.8557 98.8684
120 60 1 97.7539 99.1994 99.9879
121 61 1 100.2 100.268 102.163
122 61 1 100.641 101.268 101.822
123 62 1 101.168 102.616 101.284
124 62 1 102.311 102.336 101.386
125 63 1 98.3383 101.529 98.4832
126 63 1 98.0245 100.677 97.6665
127 64 1 102.812 100.887 97.6614
128 64 1 102.318 101.577 98.4445
129 65 1 99.2367 99.5657 98.6886
130 65 1 99.5651 100.62 98.6978
131 66 1 99.3418 97.8459 100.758
132 66 1 99.4001 98.9053 100.217
133 67 1 99.4327 99.9241 101.417
134 67 1 98.7696 100.786 101.72
135 68 1 97.544 102.636 99.2952
136 68 1 97.5844 97.6323 100.003
137 69 1 100.097 99.9063 99.2597
138 69 1 99.7145 99.9719 100.37
139 70 1 102.279 99.7717 102.283
140 70 1 101.631 99.0057 97.0418
141 71 1 101.824 101.198 97.5929
142 71 1 100.998 101.872 98.0264
143 72 1 100.514 102.819 98.3693
144 72 1 101.608 102.462 98.6848
145 73 1 99.4163 97.9913 99.6072
146 73 1 100.622 98.1025 99.644
147 74 1 99.8766 98.8579 99.2355
148 74 1 98.7258 99.1938 99.5173
149 75 1 100.294 99.2611 102.096
150 75 1 99.1963 99.0342 102.346
151 76 1 100.619 100.293 100.024
152 76 1 101.204 100.198 98.9409
153 77 1 101.441 101.197 98.7771
154 77 1 100.499 101.972 98.9597
155 78 1 101.92 102.587 100.45
156 78 1 100.759 102.373 100.323
157 79 1 101.45 101.956 99.6314
158 79 1 101.719 97.1788 99.5732
159 80 1 101.744 102.757 102.183
160 80 1 101.432 101.977 102.924
161 81 2 98.2014 98.5971 102.619
162 82 2 97.8122 97.7771 98.8217
163 83 2 101.153 97.5482 100.402
164 84 2 99.078 100.157 97.6892
165 85 2 101.272 99.1842 99.2886
166 86 2 98.3277 97.302 97.3958
167 87 2 102.813 99.1401 101.459
168 88 2 98.3526 102.481 101.351
169 89 2 98.4084 98.1424 99.6228
170 90 2 99.4277 101.601 98.9553
171 91 2 102.134 100.62 100.663
172 92 2 98.0658 102.463 100.32
173 93 2 99.5812 102.219 101.844
174 94 2 99.8186 100.847 101.09
175 95 2 100.739 98.5251 98.6584
176 96 2 102.872 98.477 98.4229
177 97 2 102.718 98.8044 102.514
178 98 2 100.921 99.7901 97.148
179 99 2 97.4413 101.677 99.9446
180 100 2 101.437 102.841 97.7112
181 101 2 102.646 102.02 102.395
182 102 2 98.8523 98.4915 98.6841
183 103 2 101.472 101.656 100.833
184 104 2 100.33 101.555 102.959
185 105 2 102.458 102.244 99.4221
186 106 2 100.642 102.912 99.4093
187 107 2 99.6287 100.935 99.8633
188 108 2 97.9873 97.5331 101.965
189 109 2 98.7156 99.5786 100.646
190 110 2 101.987 100.061 97.4541
191 111 2 98.2078 101.062 99.4132
192 112 2 100.635 102.241 102.124
193 113 2 102.581 100.882 102.497
194 114 2 102.361 100.407 98.6734
195 115 2 100.529 102.61 97.2155
196 116 2 100.337 101.102 98.1527
197 117 2 98.8636 100.651 100.632
198 118 2 101.171 100.487 97.9426
199 119 2 100.01 98.0493 101.853
200 120 2 99.7615 98.8917 101.275
ITEM: TIMESTEP
1000
ITEM: NUMBER OF ATOMS
200
ITEM: BOX BOUNDS pp pp pp
9.7009396677750075e+01 1.0299060332224992e+02
9.7039153677996751e+01 1.0296084632200325e+02
9.7039153677996751e+01 1.0296084632200325e+02
ITEM: ATOMS id mol type x y z
1 1 1 102.806 99.8202 100.439
2 1 1 101.944 99.6391 101.231
3 2 1 100.969 98.4783 102.359
4 2 1 101.209 99.6716 102.008
5 3 1 100.214 99.8932 98.2206
6 3 1 101.282 99.4659 98.092
7 4 1 98.2497 99.7852 102.991
8 4 1 98.9402 98.9048 97.424
9 5 1 98.909 98.3275 101.655
10 5 1 97.7718 98.6456 101.503
11 6 1 102.815 97.1982 102.14
12 6 1 102.106 97.4483 101.2
13 7 1 98.9873 97.8312 102.557
14 7 1 98.6292 102.656 102.435
15 8 1 101.722 100.599 101.79
16 8 1 102.509 101.322 101.41
17 9 1 101.182 100.903 102.766
18 9 1 101.648 101.688 101.957
19 10 1 100.997 100.64 101.025
20 10 1 101.402 100.932 99.8925
21 11 1 102.739 102.579 98.2847
22 11 1 97.959 102.652 98.3006
23 12 1 101.814 98.8522 101.928
24 12 1 102.803 98.1397 101.685
25 13 1 98.761 100.954 102.901
26 13 1 97.7986 100.532 102.362
27 14 1 98.0769 101.372 100.801
28 14 1 98.9035 101.643 100.043
29 15 1 102.754 97.4489 99.2309
30 15 1 102.92 102.698 100.235
31 16 1 100.246 101.931 101.126
32 16 1 99.1166 101.545 101.087
33 17 1 97.1376 98.485 100.6
34 17 1 97.1708 97.3291 101.08
35 18 1 102.241 99.0578 100.006
36 18 1 101.957 98.2536 99.1635
37 19 1 97.5675 101.477 102.819
38 19 1 97.6387 102.425 102.059
39 20 1 102.527 98.1612 97.3924
40 20 1 101.427 97.9139 97.3176
41 21 1 99.8477 98.8912 98.0559
42 21 1 99.2457 97.8661 97.8147
43 22 1 98.3873 102.007 97.3948
44 22 1 99.1893 101.245 97.906
45 23 1 98.1567 98.2585 97.7623
46 23 1 97.2459 97.5335 97.9008
47 24 1 102.067 98.5044 100.951
48 24 1 101.157 97.8297 101.482
49 25 1 100.438 100.927 99.2391
50 25 1 100.558 101.329 100.349
51 26 1 97.0645 98.4696 99.497
52 26 1 102.348 97.7672 100.214
53 27 1 102.236 97.6158 98.2618
54 27 1 102.372 97.1317 97.1654
55 28 1 98.2961 97.4118 100.771
56 28 1 98.4412 98.5464 100.685
57 29 1 97.3421 102.1 101.042
58 29 1 102.42 101.642 100.406
59 30 1 99.8183 97.1544 102.313
60 30 1 98.9763 97.305 101.544
61 31 1 101.946 100.048 99.6473
62 31 1 102.158 99.3321 98.7146
63 32 1 99.1454 100.097 102.459
64 32 1 98.4129 99.4759 101.69
65 33 1 100.437 97.8042 97.7726
66 33 1 99.793 98.4221 102.946
67 34 1 101.747 98.5369 98.1002
68 34 1 101.256 97.5917 98.6438
69 35 1 97.5318 101.346 101.742
70 35 1 98.0265 100.382 101.264
71 36 1 100.127 100.523 97.2924
72 36 1 99.6895 101.151 102.284
73 37 1 99.391 101.908 102.962
74 37 1 98.4517 101.684 102.25
75 38 1 97.5043 99.4587 102.21
76 38 1 102.853 100.267 101.568
77 39 1 99.3508 102.902 97.3149
78 39 1 99.9213 102.033 97.9864
79 40 1 101.346 98.4976 100.23
80 40 1 100.316 98.1551 100.689
81 41 1 99.3153 102.586 100.687
82 41 1 100.241 97.1584 101.302
83 42 1 98.9842 102.423 98.1661
84 42 1 98.5399 102.19 99.2382
85 43 1 100.436 99.1188 100.162
86 43 1 100.954 98.8473 101.26
87 44 1 100.488 99.7507 101.207
88 44 1 101.359 99.5323 100.401
89 45 1 100.704 98.795 97.4629
90 45 1 99.8225 99.5264 97.1871
91 46 1 102.9 99.557 99.3924
92 46 1 97.2338 99.6998 98.2409
93 47 1 98.7869 97.0956 99.8427
94 47 1 99.6102 102.681 99.0295
95 48 1 98.2884 99.5359 98.1612
96 48 1 97.5272 99.0281 97.3896
97 49 1 97.6188 99.4902 100.907
98 49 1 97.9846 100.346 100.151
99 50 1 97.9179 99.9334 99.1239
100 50 1 98.9584 100.206 99.5958
101 51 1 97.3522 101.755 98.9211
102 51 1 102.345 101.259 99.4158
103 52 1 97.1667 100.831 100.725
104 52 1 97.1118 100.582 99.5744
105 53 1 99.9515 97.7758 98.7097
106 53 1 98.8132 97.4043 98.7652
107 54 1 100.027 97.2729 100.179
108 54 1 99.8878 102.042 99.8584
109 55 1 100.84 97.4422 102.429
110 55 1 101.935 97.8775 102.301
111 56 1 97.3805 100.76 98.5218
112 56 1 98.5602 100.532 98.5426
113 57 1 97.1679 99.9956 97.1575
114 57 1 102.497 99.1514 97.6906
115 58 1 97.4197 102.622 97.202
116 58 1 97.4801 97.8889 102.869
117 59 1 97.4388 101.772 97.9057
118 59 1 102.432 102.052 97.4084
119 60 1 97.8049 98.8985 98.8234
120 60 1 97.7333 99.1718 99.9681
121 61 1 100.233 100.243 102.169
122 61 1 100.682 101.262 101.859
123 62 1 101.211 102.611 101.291
124 62 1 102.37 102.359 101.378
125 63 1 98.3217 101.601 98.4007
126 63 1 97.9655 100.701 97.6483
127 64 1 102.882 100.934 97.5854
128 64 1 102.404 101.587 98.4114
129 65 1 99.2306 99.5279 98.6309
130 65 1 99.5613 100.586 98.7714
131 66 1 99.3067 97.8219 100.736
132 66 1 99.4181 98.8652 100.205
133 67 1 99.4397 99.8849 101.508
134 67 1 98.8131 100.798 101.768
135 68 1 97.564 102.679 99.3151
136 68 1 97.5201 97.6425 100.059
137 69 1 100.06 99.8257 99.3123
138 69 1 99.7162 99.9192 100.447
139 70 1 102.319 99.7892 102.406
140 70 1 101.674 98.9522 97.0238
141 71 1 101.864 101.213 97.6098
142 71 1 101.028 101.84 98.0114
143 72 1 100.48 102.818 98.3767
144 72 1 101.574 102.43 98.755
145 73 1 99.3811 97.9793 99.5677
146 73 1 100.542 98.1645 99.6398
147 74 1 99.7933 98.8518 99.1697
148 74 1 98.6782 99.1931 99.5013
149 75 1 100.285 99.1812 102.135
150 75 1 99.1768 99.0559 102.322
151 76 1 100.664 100.233 100.05
152 76 1 101.163 100.216 98.9386
153 77 1 101.482 101.286 98.804
154 77 1 100.498 101.936 98.954
155 78 1 101.925 102.563 100.46
156 78 1 100.779 102.381 100.342
157 79 1 101.471 101.967 99.689
158 79 1 101.807 97.2113 99.5393
159 80 1 101.74 102.799 102.188
160 80 1 101.436 101.967 102.954
161 81 2 98.2424 98.6129 102.581
162 82 2 97.7747 97.7787 98.8008
163 83 2 101.188 97.4784 100.429
164 84 2 99.1017 100.097 97.7302
165 85 2 101.261 99.1755 99.245
166 86 2 98.3183 97.3035 97.3418
167 87 2 102.82 99.1921 101.493
168 88 2 98.3547 102.411 101.331
169 89 2 98.3256 98.1657 99.5917
170 90 2 99.4253 101.603 98.9538
171 91 2 102.132 100.659 100.647
172 92 2 98.0075 102.436 100.276
173 93 2 99.5362 102.209 101.819
174 94 2 99.8723 100.813 101.128
175 95 2 100.729 98.5403 98.6408
176 96 2 102.9 98.4886 98.4304
177 97 2 102.693 98.7712 102.497
178 98 2 100.971 99.7702 97.0624
179 99 2 97.3929 101.63 99.9445
180 100 2 101.527 102.745 97.7523
181 101 2 102.667 102.105 102.334
182 102 2 98.8217 98.4741 98.5698
183 103 2 101.481 101.651 100.886
184 104 2 100.394 101.523 103.055
185 105 2 102.498 102.275 99.3997
186 106 2 100.675 102.93 99.3902
187 107 2 99.6852 100.853 99.9525
188 108 2 97.951 97.6346 101.92
189 109 2 98.6575 99.5788 100.66
190 110 2 102.043 100.069 97.6218
191 111 2 98.198 101.1 99.3469
192 112 2 100.631 102.278 102.149
193 113 2 102.632 100.944 102.48
194 114 2 102.334 100.444 98.6683
195 115 2 100.521 102.618 97.2372
196 116 2 100.286 101.074 98.1981
197 117 2 98.8665 100.632 100.645
198 118 2 101.106 100.548 97.8839
199 119 2 100.086 98.0742 101.859
200 120 2 99.6966 98.8467 101.22
ITEM: TIMESTEP
2000
ITEM: NUMBER OF ATOMS
200
ITEM: BOX BOUNDS pp pp pp
9.6979340614678989e+01 1.0302065938532101e+02
9.7039153677996751e+01 1.0296084632200325e+02
9.7039153677996751e+01 1.0296084632200325e+02
ITEM: ATOMS id mol type x y z
1 1 1 102.901 99.9172 100.469
2 1 1 102.013 99.7336 101.241
3 2 1 100.978 98.53 102.366
4 2 1 101.216 99.7204 101.965
5 3 1 100.186 99.8688 98.1676
6 3 1 101.287 99.4818 98.078
7 4 1 98.2202 99.7732 102.916
8 4 1 98.8837 98.8908 97.439
9 5 1 98.8879 98.3397 101.571
10 5 1 97.7236 98.5464 101.531
11 6 1 102.822 97.1597 102.098
12 6 1 102.114 97.455 101.157
13 7 1 98.9606 97.8334 102.623
14 7 1 98.6206 102.65 102.447
15 8 1 101.687 100.636 101.756
16 8 1 102.55 101.339 101.465
17 9 1 101.237 100.88 102.669
18 9 1 101.625 101.725 101.921
19 10 1 101.047 100.626 100.957
20 10 1 101.424 100.921 99.8548
21 11 1 102.779 102.604 98.3145
22 11 1 97.9062 102.618 98.2944
23 12 1 101.851 98.8573 101.916
24 12 1 102.864 98.1322 101.741
25 13 1 98.6774 100.853 102.883
26 13 1 97.7119 100.486 102.306
27 14 1 98.0904 101.38 100.897
28 14 1 98.8956 101.726 100.124
29 15 1 102.795 97.4775 99.1918
30 15 1 102.974 102.792 100.227
31 16 1 100.219 101.916 101.131
32 16 1 99.1006 101.59 101.242
33 17 1 97.1096 98.5058 100.586
34 17 1 97.2461 97.3706 101.085
35 18 1 102.298 99.0631 100.069
36 18 1 102.004 98.2903 99.1643
37 19 1 97.5065 101.433 102.852
38 19 1 97.5793 102.416 102.16
39 20 1 102.539 98.1818 97.403
40 20 1 101.363 97.9599 97.3408
41 21 1 99.7839 98.8815 98.0614
42 21 1 99.2171 97.8883 97.7761
43 22 1 98.3246 101.973 97.4353
44 22 1 99.1862 101.225 97.9135
45 23 1 98.131 98.3121 97.8282
46 23 1 97.2319 97.565 97.9181
47 24 1 102.08 98.4884 100.956
48 24 1 101.15 97.8172 101.423
49 25 1 100.405 100.907 99.1986
50 25 1 100.52 101.29 100.33
51 26 1 97.0468 98.4391 99.5236
52 26 1 102.377 97.7835 100.181
53 27 1 102.253 97.5931 98.2894
54 27 1 102.381 97.1483 97.1747
55 28 1 98.3942 97.4516 100.814
56 28 1 98.3361 98.6241 100.63
57 29 1 97.3168 102.183 101.06
58 29 1 102.517 101.714 100.434
59 30 1 99.8688 97.2994 102.422
60 30 1 99.0521 97.3017 101.633
61 31 1 102.077 100.126 99.6606
62 31 1 102.178 99.4009 98.681
63 32 1 99.176 100.059 102.446
64 32 1 98.4103 99.4302 101.738
65 33 1 100.38 97.6692 97.6779
66 33 1 99.8231 98.4065 102.882
67 34 1 101.787 98.547 98.1253
68 34 1 101.207 97.5966 98.677
69 35 1 97.4977 101.379 101.78
70 35 1 97.9238 100.347 101.295
71 36 1 100.086 100.507 97.2153
72 36 1 99.5772 101.14 102.253
73 37 1 99.3588 101.844 102.993
74 37 1 98.4325 101.659 102.244
75 38 1 97.4753 99.4693 102.187
76 38 1 102.937 100.281 101.531
77 39 1 99.3112 102.854 97.3556
78 39 1 99.8939 102.052 98.0129
79 40 1 101.425 98.4922 100.132
80 40 1 100.411 98.1354 100.668
81 41 1 99.3324 102.518 100.76
82 41 1 100.251 97.1763 101.295
83 42 1 98.929 102.362 98.2072
84 42 1 98.4695 102.156 99.2439
85 43 1 100.499 99.0872 100.175
86 43 1 100.995 98.8913 101.248
87 44 1 100.458 99.7877 101.136
88 44 1 101.417 99.5959 100.419
89 45 1 100.696 98.7586 97.4494
90 45 1 99.762 99.4531 97.1646
91 46 1 102.927 99.5463 99.392
92 46 1 97.2277 99.7061 98.2493
93 47 1 98.9434 97.0408 99.8394
94 47 1 99.663 102.605 98.923
95 48 1 98.3132 99.4651 98.1576
96 48 1 97.4671 99.0095 97.4564
97 49 1 97.6614 99.4397 100.972
98 49 1 97.9238 100.356 100.219
99 50 1 97.8606 99.9358 99.1809
100 50 1 98.9321 100.102 99.6324
101 51 1 97.3365 101.752 98.9452
102 51 1 102.378 101.271 99.4644
103 52 1 97.1787 100.913 100.745
104 52 1 97.0972 100.599 99.6246
105 53 1 100.038 97.7381 98.7088
106 53 1 98.8714 97.3567 98.745
107 54 1 100.066 97.2614 100.173
108 54 1 99.8897 102.045 99.8821
109 55 1 100.893 97.4673 102.476
110 55 1 101.992 97.8971 102.346
111 56 1 97.3906 100.779 98.6062
112 56 1 98.5454 100.446 98.5283
113 57 1 97.1264 100.002 97.1013
114 57 1 102.515 99.2048 97.7328
115 58 1 97.3188 102.616 97.279
116 58 1 97.3579 97.8636 102.787
117 59 1 97.3518 101.755 97.8983
118 59 1 102.336 102.084 97.4663
119 60 1 97.8303 98.8119 98.8581
120 60 1 97.7217 99.2479 99.9534
121 61 1 100.279 100.242 102.098
122 61 1 100.728 101.258 101.763
123 62 1 101.203 102.695 101.238
124 62 1 102.346 102.364 101.397
125 63 1 98.2885 101.486 98.4377
126 63 1 97.9281 100.614 97.6649
127 64 1 102.873 100.866 97.6605
128 64 1 102.397 101.604 98.4507
129 65 1 99.2257 99.5162 98.6836
130 65 1 99.5484 100.581 98.707
131 66 1 99.3682 97.8242 100.773
132 66 1 99.3799 98.8552 100.24
133 67 1 99.3666 99.8634 101.427
134 67 1 98.7221 100.754 101.754
135 68 1 97.5728 102.665 99.3679
136 68 1 97.5853 97.6794 100.118
137 69 1 100.053 99.8494 99.2778
138 69 1 99.7269 99.9389 100.417
139 70 1 102.268 99.8412 102.311
140 70 1 101.703 99.0263 97.0625
141 71 1 101.831 101.176 97.5962
142 71 1 100.98 101.823 97.9776
143 72 1 100.566 102.761 98.371
144 72 1 101.626 102.4 98.6494
145 73 1 99.4171 97.9408 99.5307
146 73 1 100.604 98.1253 99.5987
147 74 1 99.8427 98.7887 99.1831
148 74 1 98.6722 99.0576 99.4987
149 75 1 100.25 99.2214 102.118
150 75 1 99.1689 98.9864 102.322
151 76 1 100.649 100.226 100.014
152 76 1 101.217 100.236 98.9367
153 77 1 101.474 101.215 98.776
154 77 1 100.551 101.905 98.95
155 78 1 101.917 102.614 100.395
156 78 1 100.733 102.341 100.353
157 79 1 101.446 102.001 99.633
158 79 1 101.8 97.2283 99.4393
159 80 1 101.792 102.788 102.164
160 80 1 101.407 101.985 102.946
161 81 2 98.1392 98.6116 102.612
162 82 2 97.8127 97.7465 98.7866
163 83 2 101.21 97.4911 100.29
164 84 2 99.1074 100.056 97.7287
165 85 2 101.332 99.2633 99.2998
166 86 2 98.2605 97.2927 97.3563
167 87 2 102.858 99.2056 101.469
168 88 2 98.328 102.454 101.412
169 89 2 98.3762 98.0731 99.6029
170 90 2 99.3728 101.549 98.979
171 91 2 102.182 100.72 100.662
172 92 2 98.0572 102.512 100.318
173 93 2 99.6079 102.285 101.915
174 94 2 99.7952 100.819 101.202
175 95 2 100.741 98.5737 98.6252
176 96 2 102.929 98.506 98.4555
177 97 2 102.731 98.8444 102.508
178 98 2 100.897 99.7785 97.0963
179 99 2 97.409 101.725 99.9533
180 100 2 101.442 102.83 97.7319
181 101 2 102.631 102.053 102.366
182 102 2 98.8317 98.4733 98.6118
183 103 2 101.513 101.658 100.813
184 104 2 100.366 101.509 102.921
185 105 2 102.514 102.311 99.3929
186 106 2 100.7 102.84 99.4217
187 107 2 99.6115 100.883 99.8632
188 108 2 97.9837 97.6057 101.938
189 109 2 98.6864 99.6002 100.63
190 110 2 102.011 100.073 97.4938
191 111 2 98.2387 101.07 99.4043
192 112 2 100.691 102.301 102.126
193 113 2 102.63 100.916 102.494
194 114 2 102.401 100.425 98.6981
195 115 2 100.446 102.552 97.2258
196 116 2 100.245 101.067 98.1365
197 117 2 98.8746 100.691 100.677
198 118 2 101.087 100.505 97.8751
199 119 2 100.066 98.125 101.805
200 120 2 99.7852 98.8725 101.22
ITEM: TIMESTEP
3000
ITEM: NUMBER OF ATOMS
200
ITEM: BOX BOUNDS pp pp pp
9.6948982483152150e+01 1.0305101751684785e+02
9.7039153677996751e+01 1.0296084632200325e+02
9.7039153677996751e+01 1.0296084632200325e+02
ITEM: ATOMS id mol type x y z
1 1 1 102.865 99.9005 100.463
2 1 1 102.012 99.7063 101.281
3 2 1 101.045 98.5309 102.385
4 2 1 101.224 99.6808 102.023
5 3 1 100.211 99.9129 98.1611
6 3 1 101.296 99.4917 98.0868
7 4 1 98.2832 99.8056 102.954
8 4 1 98.9938 98.911 97.4459
9 5 1 98.911 98.3954 101.569
10 5 1 97.7295 98.5865 101.589
11 6 1 102.877 97.141 102.033
12 6 1 102.186 97.4278 101.114
13 7 1 98.9118 97.8464 102.605
14 7 1 98.6031 102.654 102.458
15 8 1 101.696 100.586 101.837
16 8 1 102.52 101.346 101.423
17 9 1 101.108 100.894 102.724
18 9 1 101.63 101.662 101.928
19 10 1 100.993 100.694 100.994
20 10 1 101.428 100.91 99.8772
21 11 1 102.852 102.591 98.3
22 11 1 97.9141 102.576 98.3871
23 12 1 101.93 98.8697 101.933
24 12 1 102.89 98.1145 101.676
25 13 1 98.7273 100.938 102.874
26 13 1 97.7158 100.551 102.354
27 14 1 98.0266 101.434 100.82
28 14 1 98.8733 101.63 100.074
29 15 1 102.808 97.4548 99.1863
30 15 1 102.955 102.754 100.207
31 16 1 100.196 101.994 101.061
32 16 1 99.0799 101.61 101.174
33 17 1 97.1662 98.4576 100.62
34 17 1 97.2384 97.3578 101.043
35 18 1 102.319 99.0442 100.027
36 18 1 101.968 98.2842 99.1593
37 19 1 97.4209 101.459 102.832
38 19 1 97.5812 102.408 102.121
39 20 1 102.523 98.1826 97.3342
40 20 1 101.399 97.946 97.333
41 21 1 99.8265 98.9014 98.0669
42 21 1 99.2318 97.8804 97.8356
43 22 1 98.2982 101.978 97.4184
44 22 1 99.1664 101.256 97.9248
45 23 1 98.195 98.258 97.8263
46 23 1 97.2041 97.5457 97.8726
47 24 1 102.114 98.4639 100.971
48 24 1 101.232 97.8261 101.478
49 25 1 100.472 100.913 99.1573
50 25 1 100.522 101.301 100.293
51 26 1 97.0737 98.478 99.5392
52 26 1 102.365 97.8354 100.094
53 27 1 102.283 97.5804 98.2712
54 27 1 102.463 97.1771 97.1317
55 28 1 98.2724 97.4987 100.797
56 28 1 98.2997 98.6106 100.621
57 29 1 97.2408 102.19 101.057
58 29 1 102.471 101.698 100.424
59 30 1 99.8379 97.2858 102.382
60 30 1 98.9583 97.314 101.636
61 31 1 102.092 100.101 99.6618
62 31 1 102.209 99.3165 98.7303
63 32 1 99.2446 100.101 102.455
64 32 1 98.4287 99.4338 101.775
65 33 1 100.422 97.7527 97.8018
66 33 1 99.8229 98.3734 102.911
67 34 1 101.847 98.5523 98.1322
68 34 1 101.294 97.6088 98.6325
69 35 1 97.4029 101.394 101.761
70 35 1 97.9228 100.382 101.321
71 36 1 100.165 100.527 97.2648
72 36 1 99.6514 101.126 102.283
73 37 1 99.2866 101.876 102.962
74 37 1 98.3622 101.642 102.217
75 38 1 97.4958 99.4954 102.288
76 38 1 102.958 100.241 101.579
77 39 1 99.3706 102.882 97.365
78 39 1 99.9241 102.057 97.9841
79 40 1 101.408 98.5129 100.22
80 40 1 100.399 98.1122 100.702
81 41 1 99.2876 102.576 100.738
82 41 1 100.204 97.1797 101.301
83 42 1 98.9414 102.386 98.2034
84 42 1 98.4145 102.132 99.2195
85 43 1 100.481 99.1758 100.193
86 43 1 100.995 98.8729 101.26
87 44 1 100.459 99.7723 101.13
88 44 1 101.424 99.6051 100.461
89 45 1 100.729 98.7702 97.448
90 45 1 99.8244 99.4991 97.1241
91 46 1 102.983 99.5932 99.4161
92 46 1 97.2798 99.6138 98.2563
93 47 1 98.8289 97.0144 99.8444
94 47 1 99.6388 102.668 98.9961
95 48 1 98.3308 99.4201 98.1167
96 48 1 97.439 98.8969 97.469
97 49 1 97.6608 99.4306 100.967
98 49 1 97.8854 100.284 100.206
99 50 1 97.9017 99.8675 99.1107
100 50 1 98.9326 100.142 99.6013
101 51 1 97.2621 101.657 98.9432
102 51 1 102.35 101.219 99.4951
103 52 1 97.1136 100.865 100.761
104 52 1 97.1097 100.637 99.6138
105 53 1 99.9603 97.7761 98.7929
106 53 1 98.779 97.3893 98.7581
107 54 1 99.9851 97.2676 100.113
108 54 1 99.7991 102.059 99.9127
109 55 1 100.892 97.4973 102.421
110 55 1 102.038 97.9037 102.312
111 56 1 97.417 100.654 98.5625
112 56 1 98.5248 100.439 98.5192
113 57 1 97.1368 99.9799 97.2245
114 57 1 102.568 99.1494 97.7248
115 58 1 97.2854 102.576 97.2447
116 58 1 97.3116 97.814 102.749
117 59 1 97.3521 101.734 97.9086
118 59 1 102.423 102.068 97.4361
119 60 1 97.7645 98.8044 98.8213
120 60 1 97.762 99.2343 99.9524
121 61 1 100.322 100.265 102.156
122 61 1 100.646 101.299 101.763
123 62 1 101.178 102.671 101.259
124 62 1 102.315 102.35 101.344
125 63 1 98.224 101.467 98.4228
126 63 1 97.8818 100.72 97.5749
127 64 1 102.889 100.893 97.6264
128 64 1 102.427 101.614 98.4778
129 65 1 99.2155 99.5438 98.6736
130 65 1 99.535 100.621 98.7039
131 66 1 99.3141 97.7959 100.782
132 66 1 99.4187 98.8944 100.245
133 67 1 99.4095 99.8434 101.469
134 67 1 98.7867 100.761 101.725
135 68 1 97.4986 102.607 99.3576
136 68 1 97.5307 97.6247 100.046
137 69 1 100.017 99.8721 99.2712
138 69 1 99.7171 99.9518 100.425
139 70 1 102.382 99.7774 102.328
140 70 1 101.745 99.0205 97.0912
141 71 1 101.865 101.209 97.5963
142 71 1 101.011 101.862 97.9671
143 72 1 100.518 102.818 98.3755
144 72 1 101.581 102.368 98.6789
145 73 1 99.3805 97.9662 99.638
146 73 1 100.575 98.1838 99.6248
147 74 1 99.8524 98.8313 99.174
148 74 1 98.7061 99.112 99.4998
149 75 1 100.296 99.1883 102.145
150 75 1 99.2141 99.0428 102.305
151 76 1 100.662 100.229 100.057
152 76 1 101.235 100.215 98.9345
153 77 1 101.454 101.253 98.7299
154 77 1 100.51 101.959 98.9457
155 78 1 101.864 102.611 100.397
156 78 1 100.736 102.361 100.278
157 79 1 101.499 101.956 99.6836
158 79 1 101.833 97.1728 99.4502
159 80 1 101.779 102.803 102.178
160 80 1 101.404 101.997 102.897
161 81 2 98.197 98.6103 102.676
162 82 2 97.7695 97.7143 98.8198
163 83 2 101.178 97.5011 100.288
164 84 2 99.1638 100.094 97.7245
165 85 2 101.32 99.2422 99.3139
166 86 2 98.2852 97.2347 97.3996
167 87 2 102.921 99.2025 101.474
168 88 2 98.2907 102.48 101.378
169 89 2 98.351 98.0981 99.6092
170 90 2 99.437 101.616 99.0034
171 91 2 102.115 100.723 100.68
172 92 2 97.9827 102.463 100.297
173 93 2 99.5648 102.269 101.857
174 94 2 99.8318 100.774 101.102
175 95 2 100.782 98.5538 98.616
176 96 2 102.951 98.4701 98.4488
177 97 2 102.835 98.8018 102.474
178 98 2 100.931 99.7451 97.1087
179 99 2 97.3127 101.68 99.959
180 100 2 101.477 102.79 97.6964
181 101 2 102.682 102.11 102.343
182 102 2 98.8063 98.4599 98.6708
183 103 2 101.481 101.637 100.854
184 104 2 100.317 101.604 102.974
185 105 2 102.523 102.274 99.3729
186 106 2 100.689 102.952 99.3955
187 107 2 99.6423 100.867 99.8818
188 108 2 97.9005 97.5758 101.948
189 109 2 98.6822 99.5694 100.644
190 110 2 102.07 100.08 97.5174
191 111 2 98.2522 101.029 99.3739
192 112 2 100.634 102.343 102.123
193 113 2 102.629 100.861 102.472
194 114 2 102.411 100.404 98.6773
195 115 2 100.515 102.689 97.232
196 116 2 100.273 101.116 98.1467
197 117 2 98.8206 100.638 100.618
198 118 2 101.106 100.509 97.8904
199 119 2 100.111 98.1297 101.852
200 120 2 99.7718 98.8443 101.199
ITEM: TIMESTEP
4000
ITEM: NUMBER OF ATOMS
200
ITEM: BOX BOUNDS pp pp pp
9.6918319247331112e+01 1.0308168075266889e+02
9.7039153677996751e+01 1.0296084632200325e+02
9.7039153677996751e+01 1.0296084632200325e+02
ITEM: ATOMS id mol type x y z
1 1 1 102.88 99.8553 100.47
2 1 1 102.026 99.6445 101.273
3 2 1 100.919 98.5611 102.355
4 2 1 101.29 99.6733 102.052
5 3 1 100.21 99.8801 98.1657
6 3 1 101.363 99.5073 98.0824
7 4 1 98.2456 99.7587 102.915
8 4 1 98.9283 98.8706 97.3925
9 5 1 98.8525 98.3788 101.443
10 5 1 97.6974 98.632 101.575
11 6 1 102.877 97.1227 102.113
12 6 1 102.135 97.4544 101.232
13 7 1 98.9599 97.8616 102.577
14 7 1 98.5984 102.682 102.464
15 8 1 101.817 100.579 101.841
16 8 1 102.555 101.362 101.463
17 9 1 101.192 100.97 102.712
18 9 1 101.645 101.738 101.896
19 10 1 101.161 100.542 101.006
20 10 1 101.504 100.943 99.8517
21 11 1 102.878 102.603 98.3773
22 11 1 97.8758 102.584 98.3839
23 12 1 101.877 98.7931 101.925
24 12 1 102.927 98.1071 101.775
25 13 1 98.6662 100.894 102.944
26 13 1 97.6951 100.533 102.341
27 14 1 98.016 101.464 100.814
28 14 1 98.8861 101.698 100.056
29 15 1 102.89 97.4702 99.2388
30 15 1 103.037 102.769 100.262
31 16 1 100.108 101.971 101.059
32 16 1 98.999 101.595 101.147
33 17 1 96.9988 98.4148 100.622
34 17 1 97.1734 97.3839 101.11
35 18 1 102.322 99.019 99.9832
36 18 1 102.06 98.2426 99.1615
37 19 1 97.4606 101.474 102.848
38 19 1 97.5422 102.429 102.116
39 20 1 102.619 98.1477 97.4115
40 20 1 101.451 98.0133 97.2415
41 21 1 99.7985 98.8515 98.0397
42 21 1 99.2193 97.8692 97.7614
43 22 1 98.261 101.979 97.4006
44 22 1 99.1528 101.205 97.9002
45 23 1 98.157 98.2723 97.844
46 23 1 97.2164 97.5234 97.9312
47 24 1 102.116 98.5115 100.966
48 24 1 101.193 97.8384 101.444
49 25 1 100.493 100.944 99.2968
50 25 1 100.572 101.266 100.367
51 26 1 97.0134 98.4575 99.5118
52 26 1 102.37 97.8028 100.163
53 27 1 102.309 97.5405 98.2926
54 27 1 102.418 97.1576 97.1482
55 28 1 98.3117 97.4662 100.765
56 28 1 98.1704 98.5734 100.585
57 29 1 97.2861 102.184 101.059
58 29 1 102.572 101.671 100.43
59 30 1 99.8707 97.2921 102.42
60 30 1 98.988 97.3461 101.622
61 31 1 102.093 100.036 99.6784
62 31 1 102.182 99.3149 98.7684
63 32 1 99.2341 100.084 102.445
64 32 1 98.4101 99.4628 101.775
65 33 1 100.537 97.7217 97.6512
66 33 1 99.8635 98.4255 102.935
67 34 1 101.772 98.517 98.1084
68 34 1 101.26 97.6485 98.6565
69 35 1 97.396 101.369 101.758
70 35 1 97.9542 100.409 101.325
71 36 1 99.9906 100.594 97.2711
72 36 1 99.7456 101.123 102.18
73 37 1 99.2523 101.816 102.945
74 37 1 98.3547 101.667 102.211
75 38 1 97.456 99.4624 102.248
76 38 1 103.016 100.284 101.59
77 39 1 99.3156 102.8 97.3151
78 39 1 99.8912 102.003 97.9767
79 40 1 101.395 98.5046 100.245
80 40 1 100.405 98.0884 100.69
81 41 1 99.2035 102.625 100.689
82 41 1 100.169 97.1454 101.257
83 42 1 98.8959 102.369 98.2107
84 42 1 98.3507 102.097 99.2178
85 43 1 100.462 99.107 100.207
86 43 1 100.984 98.8732 101.26
87 44 1 100.432 99.781 101.132
88 44 1 101.433 99.5965 100.42
89 45 1 100.758 98.8171 97.4682
90 45 1 99.8291 99.4816 97.1531
91 46 1 103.005 99.6042 99.3478
92 46 1 97.1723 99.6857 98.2581
93 47 1 98.7942 97.014 99.7055
94 47 1 99.6583 102.696 98.9421
95 48 1 98.3 99.4031 98.1321
96 48 1 97.4709 98.9423 97.4105
97 49 1 97.583 99.4908 101.003