ITEM: TIMESTEP
0
ITEM: NUMBER OF ATOMS
200
ITEM: BOX BOUNDS pp pp pp
9.7039153677996751e+01 1.0296084632200325e+02
9.7039153677996751e+01 1.0296084632200325e+02
9.7039153677996751e+01 1.0296084632200325e+02
ITEM: ATOMS id mol type x y z
1 1 1 102.811 99.8191 100.473
2 1 1 101.909 99.6119 101.231
3 2 1 100.91 98.4742 102.364
4 2 1 101.247 99.6476 102.087
5 3 1 100.186 99.9051 98.127
6 3 1 101.279 99.4644 98.1029
7 4 1 98.3119 99.7802 102.957
8 4 1 98.9785 98.9632 97.4794
9 5 1 98.9083 98.3901 101.61
10 5 1 97.764 98.5274 101.536
11 6 1 102.822 97.0965 102.068
12 6 1 102.078 97.4234 101.213
13 7 1 98.9746 97.8531 102.607
14 7 1 98.6739 102.672 102.443
15 8 1 101.692 100.563 101.752
16 8 1 102.498 101.292 101.435
17 9 1 101.193 100.882 102.666
18 9 1 101.622 101.702 101.936
19 10 1 100.991 100.688 100.989
20 10 1 101.397 100.94 99.8932
21 11 1 102.72 102.615 98.3423
22 11 1 97.9492 102.664 98.3234
23 12 1 101.794 98.7888 101.914
24 12 1 102.79 98.0784 101.732
25 13 1 98.7211 100.985 102.875
26 13 1 97.7886 100.474 102.312
27 14 1 98.0981 101.413 100.84
28 14 1 98.8715 101.689 100.014
29 15 1 102.668 97.4409 99.2246
30 15 1 102.935 102.722 100.214
31 16 1 100.237 101.907 101.086
32 16 1 99.0907 101.591 101.141
33 17 1 97.2429 98.4623 100.59
34 17 1 97.2419 97.3792 101.066
35 18 1 102.223 99.0322 100.032
36 18 1 101.923 98.2278 99.2005
37 19 1 97.6254 101.384 102.839
38 19 1 97.7186 102.351 102.151
39 20 1 102.481 98.1524 97.3598
40 20 1 101.324 97.963 97.301
41 21 1 99.8068 98.9134 98.1202
42 21 1 99.2397 97.9269 97.8185
43 22 1 98.3599 102.001 97.3282
44 22 1 99.168 101.267 97.9201
45 23 1 98.1733 98.3253 97.8387
46 23 1 97.3158 97.5591 97.8943
47 24 1 102.033 98.4729 100.944
48 24 1 101.115 97.8121 101.472
49 25 1 100.478 100.921 99.159
50 25 1 100.514 101.352 100.267
51 26 1 97.0592 98.463 99.4717
52 26 1 102.352 97.7638 100.202
53 27 1 102.219 97.6162 98.2841
54 27 1 102.386 97.1406 97.1347
55 28 1 98.2965 97.4625 100.782
56 28 1 98.4243 98.593 100.654
57 29 1 97.3633 102.15 101.107
58 29 1 102.426 101.663 100.422
59 30 1 99.8391 97.1666 102.38
60 30 1 99.0687 97.3131 101.567
61 31 1 102.012 100.052 99.6441
62 31 1 102.125 99.3599 98.6694
63 32 1 99.1982 100.118 102.432
64 32 1 98.4748 99.4547 101.744
65 33 1 100.371 97.752 97.7449
66 33 1 99.8154 98.4524 102.934
67 34 1 101.725 98.5181 98.0603
68 34 1 101.203 97.608 98.671
69 35 1 97.5625 101.332 101.781
70 35 1 97.9476 100.372 101.254
71 36 1 100.101 100.559 97.2508
72 36 1 99.5992 101.119 102.211
73 37 1 99.3574 101.896 102.948
74 37 1 98.5431 101.691 102.156
75 38 1 97.5256 99.4688 102.241
76 38 1 102.832 100.222 101.504
77 39 1 99.4061 102.926 97.3919
78 39 1 99.9112 102.053 97.9658
79 40 1 101.325 98.5712 100.209
80 40 1 100.331 98.1877 100.707
81 41 1 99.3519 102.497 100.745
82 41 1 100.192 97.1206 101.32
83 42 1 98.9271 102.334 98.1351
84 42 1 98.572 102.321 99.2447
85 43 1 100.419 99.1998 100.201
86 43 1 100.982 98.9105 101.226
87 44 1 100.471 99.8197 101.185
88 44 1 101.339 99.6371 100.366
89 45 1 100.685 98.8104 97.4934
90 45 1 99.8096 99.5475 97.1561
91 46 1 102.886 99.5073 99.3573
92 46 1 97.2757 99.666 98.26
93 47 1 98.9089 97.1203 99.9222
94 47 1 99.579 102.64 98.9697
95 48 1 98.3368 99.4681 98.1698
96 48 1 97.5656 99.0356 97.4145
97 49 1 97.7508 99.4258 100.986
98 49 1 97.9577 100.288 100.163
99 50 1 97.9368 99.9272 99.1414
100 50 1 98.9721 100.22 99.5765
101 51 1 97.3354 101.661 98.9012
102 51 1 102.307 101.214 99.4496
103 52 1 97.2205 100.88 100.729
104 52 1 97.1274 100.53 99.5627
105 53 1 99.9634 97.7528 98.7359
106 53 1 98.7994 97.3756 98.7367
107 54 1 100.01 97.2765 100.189
108 54 1 99.8574 102.105 99.8559
109 55 1 100.852 97.4312 102.427
110 55 1 101.977 97.8546 102.368
111 56 1 97.4537 100.702 98.5386
112 56 1 98.5825 100.49 98.5359
113 57 1 97.2113 100.036 97.1828
114 57 1 102.469 99.1594 97.6763
115 58 1 97.4334 102.589 97.2575
116 58 1 97.4109 97.8005 102.789
117 59 1 97.4616 101.734 97.9029
118 59 1 102.362 102.097 97.4929
119 60 1 97.8416 98.8557 98.8684
120 60 1 97.7539 99.1994 99.9879
121 61 1 100.2 100.268 102.163
122 61 1 100.641 101.268 101.822
123 62 1 101.168 102.616 101.284
124 62 1 102.311 102.336 101.386
125 63 1 98.3383 101.529 98.4832
126 63 1 98.0245 100.677 97.6665
127 64 1 102.812 100.887 97.6614
128 64 1 102.318 101.577 98.4445
129 65 1 99.2367 99.5657 98.6886
130 65 1 99.5651 100.62 98.6978
131 66 1 99.3418 97.8459 100.758
132 66 1 99.4001 98.9053 100.217
133 67 1 99.4327 99.9241 101.417
134 67 1 98.7696 100.786 101.72
135 68 1 97.544 102.636 99.2952
136 68 1 97.5844 97.6323 100.003
137 69 1 100.097 99.9063 99.2597
138 69 1 99.7145 99.9719 100.37
139 70 1 102.279 99.7717 102.283
140 70 1 101.631 99.0057 97.0418
141 71 1 101.824 101.198 97.5929
142 71 1 100.998 101.872 98.0264
143 72 1 100.514 102.819 98.3693
144 72 1 101.608 102.462 98.6848
145 73 1 99.4163 97.9913 99.6072
146 73 1 100.622 98.1025 99.644
147 74 1 99.8766 98.8579 99.2355
148 74 1 98.7258 99.1938 99.5173
149 75 1 100.294 99.2611 102.096
150 75 1 99.1963 99.0342 102.346
151 76 1 100.619 100.293 100.024
152 76 1 101.204 100.198 98.9409
153 77 1 101.441 101.197 98.7771
154 77 1 100.499 101.972 98.9597
155 78 1 101.92 102.587 100.45
156 78 1 100.759 102.373 100.323
157 79 1 101.45 101.956 99.6314
158 79 1 101.719 97.1788 99.5732
159 80 1 101.744 102.757 102.183
160 80 1 101.432 101.977 102.924
161 81 2 98.2014 98.5971 102.619
162 82 2 97.8122 97.7771 98.8217
163 83 2 101.153 97.5482 100.402
164 84 2 99.078 100.157 97.6892
165 85 2 101.272 99.1842 99.2886
166 86 2 98.3277 97.302 97.3958
167 87 2 102.813 99.1401 101.459
168 88 2 98.3526 102.481 101.351
169 89 2 98.4084 98.1424 99.6228
170 90 2 99.4277 101.601 98.9553
171 91 2 102.134 100.62 100.663
172 92 2 98.0658 102.463 100.32
173 93 2 99.5812 102.219 101.844
174 94 2 99.8186 100.847 101.09
175 95 2 100.739 98.5251 98.6584
176 96 2 102.872 98.477 98.4229
177 97 2 102.718 98.8044 102.514
178 98 2 100.921 99.7901 97.148
179 99 2 97.4413 101.677 99.9446
180 100 2 101.437 102.841 97.7112
181 101 2 102.646 102.02 102.395
182 102 2 98.8523 98.4915 98.6841
183 103 2 101.472 101.656 100.833
184 104 2 100.33 101.555 102.959
185 105 2 102.458 102.244 99.4221
186 106 2 100.642 102.912 99.4093
187 107 2 99.6287 100.935 99.8633
188 108 2 97.9873 97.5331 101.965
189 109 2 98.7156 99.5786 100.646
190 110 2 101.987 100.061 97.4541
191 111 2 98.2078 101.062 99.4132
192 112 2 100.635 102.241 102.124
193 113 2 102.581 100.882 102.497
194 114 2 102.361 100.407 98.6734
195 115 2 100.529 102.61 97.2155
196 116 2 100.337 101.102 98.1527
197 117 2 98.8636 100.651 100.632
198 118 2 101.171 100.487 97.9426
199 119 2 100.01 98.0493 101.853
200 120 2 99.7615 98.8917 101.275
ITEM: TIMESTEP
1000
ITEM: NUMBER OF ATOMS
200
ITEM: BOX BOUNDS pp pp pp
9.7009396677750075e+01 1.0299060332224992e+02
9.7039153677996751e+01 1.0296084632200325e+02
9.7039153677996751e+01 1.0296084632200325e+02
ITEM: ATOMS id mol type x y z
1 1 1 102.804 99.8357 100.423
2 1 1 101.928 99.6507 101.254
3 2 1 100.983 98.5268 102.377
4 2 1 101.207 99.677 102.026
5 3 1 100.185 99.9089 98.1579
6 3 1 101.318 99.4646 98.0307
7 4 1 98.2675 99.743 102.991
8 4 1 98.9475 98.8822 97.4444
9 5 1 98.8891 98.2847 101.648
10 5 1 97.7646 98.5836 101.485
11 6 1 102.795 97.1329 102.115
12 6 1 102.075 97.3993 101.237
13 7 1 98.8763 97.8964 102.679
14 7 1 98.6486 102.689 102.447
15 8 1 101.683 100.595 101.815
16 8 1 102.488 101.324 101.468
17 9 1 101.173 100.923 102.72
18 9 1 101.623 101.687 101.948
19 10 1 101.006 100.651 100.992
20 10 1 101.429 100.922 99.8662
21 11 1 102.743 102.598 98.3301
22 11 1 97.9314 102.584 98.3657
23 12 1 101.841 98.838 101.916
24 12 1 102.839 98.1256 101.738
25 13 1 98.7588 100.955 102.902
26 13 1 97.8146 100.522 102.357
27 14 1 98.1261 101.4 100.954
28 14 1 98.8747 101.665 100.071
29 15 1 102.762 97.449 99.2404
30 15 1 102.956 102.709 100.241
31 16 1 100.216 101.969 101.077
32 16 1 99.111 101.646 101.24
33 17 1 97.1562 98.471 100.609
34 17 1 97.191 97.3631 101.052
35 18 1 102.187 99.0457 100.056
36 18 1 101.956 98.2488 99.1953
37 19 1 97.5731 101.396 102.871
38 19 1 97.6428 102.407 102.162
39 20 1 102.543 98.2191 97.3966
40 20 1 101.372 98.0216 97.314
41 21 1 99.8045 98.8334 98.0204
42 21 1 99.225 97.8543 97.8324
43 22 1 98.3562 101.944 97.3884
44 22 1 99.2242 101.213 97.885
45 23 1 98.182 98.2174 97.7591
46 23 1 97.2497 97.528 97.9461
47 24 1 102.073 98.417 100.983
48 24 1 101.161 97.8039 101.459
49 25 1 100.439 100.896 99.199
50 25 1 100.551 101.329 100.304
51 26 1 97.0253 98.4446 99.5421
52 26 1 102.372 97.7016 100.238
53 27 1 102.209 97.5869 98.3085
54 27 1 102.413 97.1691 97.1705
55 28 1 98.271 97.4862 100.815
56 28 1 98.4251 98.5778 100.632
57 29 1 97.3717 102.135 101.062
58 29 1 102.444 101.678 100.427
59 30 1 99.8655 97.3701 102.433
60 30 1 99.0376 97.2931 101.571
61 31 1 102.058 100.104 99.6272
62 31 1 102.082 99.3084 98.7558
63 32 1 99.1665 100.057 102.455
64 32 1 98.4417 99.4465 101.678
65 33 1 100.428 97.7076 97.7157
66 33 1 99.7928 98.3544 102.948
67 34 1 101.771 98.5315 98.1225
68 34 1 101.233 97.6272 98.6558
69 35 1 97.491 101.334 101.794
70 35 1 97.9765 100.378 101.283
71 36 1 100.059 100.56 97.2484
72 36 1 99.6377 101.153 102.197
73 37 1 99.3659 101.855 102.985
74 37 1 98.4546 101.685 102.227
75 38 1 97.5234 99.5297 102.159
76 38 1 102.876 100.278 101.505
77 39 1 99.3312 102.89 97.3411
78 39 1 99.9207 102.083 97.9747
79 40 1 101.325 98.5273 100.278
80 40 1 100.331 98.1278 100.693
81 41 1 99.3506 102.574 100.749
82 41 1 100.182 97.2058 101.375
83 42 1 98.923 102.356 98.109
84 42 1 98.4652 102.144 99.1908
85 43 1 100.465 99.1516 100.267
86 43 1 100.902 98.8108 101.314
87 44 1 100.475 99.7755 101.17
88 44 1 101.403 99.6938 100.381
89 45 1 100.681 98.7972 97.4686
90 45 1 99.7866 99.4672 97.1943
91 46 1 102.895 99.54 99.326
92 46 1 97.2497 99.7456 98.2429
93 47 1 98.9151 97.0474 99.822
94 47 1 99.6039 102.616 98.9235
95 48 1 98.3096 99.4423 98.1272
96 48 1 97.4732 98.97 97.492
97 49 1 97.6486 99.5228 100.958
98 49 1 97.9616 100.359 100.205
99 50 1 97.9005 99.8893 99.1743
100 50 1 98.9088 100.204 99.6425
101 51 1 97.4513 101.712 98.9344
102 51 1 102.419 101.226 99.4403
103 52 1 97.1945 100.918 100.74
104 52 1 97.1465 100.529 99.6082
105 53 1 99.9829 97.7463 98.6754
106 53 1 98.82 97.3713 98.701
107 54 1 100.025 97.2609 100.218
108 54 1 99.7917 102.074 99.8293
109 55 1 100.881 97.4574 102.454
110 55 1 101.961 97.9119 102.363
111 56 1 97.403 100.736 98.5795
112 56 1 98.5422 100.453 98.5516
113 57 1 97.1656 99.9717 97.1672
114 57 1 102.46 99.2479 97.7197
115 58 1 97.3952 102.591 97.2843
116 58 1 97.4214 97.8303 102.824
117 59 1 97.3936 101.707 97.9285
118 59 1 102.383 102.098 97.478
119 60 1 97.8739 98.8439 98.8361
120 60 1 97.7552 99.1449 99.9732
121 61 1 100.228 100.297 102.14
122 61 1 100.658 101.314 101.805
123 62 1 101.189 102.61 101.259
124 62 1 102.352 102.341 101.39
125 63 1 98.3097 101.471 98.3557
126 63 1 97.9375 100.621 97.6144
127 64 1 102.853 100.815 97.652
128 64 1 102.452 101.58 98.4844
129 65 1 99.2309 99.5293 98.647
130 65 1 99.564 100.589 98.7208
131 66 1 99.2759 97.8577 100.661
132 66 1 99.4681 98.8424 100.084
133 67 1 99.444 99.9075 101.443
134 67 1 98.7847 100.801 101.764
135 68 1 97.5559 102.693 99.3398
136 68 1 97.5366 97.6767 100.063
137 69 1 100.064 99.8719 99.2718
138 69 1 99.6945 99.9085 100.371
139 70 1 102.366 99.7756 102.293
140 70 1 101.675 99.0761 97.0118
141 71 1 101.857 101.211 97.621
142 71 1 100.995 101.879 97.9712
143 72 1 100.578 102.785 98.3439
144 72 1 101.683 102.371 98.6343
145 73 1 99.4338 97.9031 99.5247
146 73 1 100.598 98.1987 99.6437
147 74 1 99.8447 98.8134 99.132
148 74 1 98.6941 99.1431 99.4648
149 75 1 100.252 99.2475 102.14
150 75 1 99.1754 99.0182 102.298
151 76 1 100.619 100.262 100.016
152 76 1 101.223 100.196 98.9411
153 77 1 101.461 101.212 98.7146
154 77 1 100.547 101.934 99.0048
155 78 1 101.921 102.589 100.431
156 78 1 100.75 102.377 100.283
157 79 1 101.551 101.961 99.6496
158 79 1 101.803 97.1582 99.4979
159 80 1 101.762 102.784 102.137
160 80 1 101.423 101.994 102.932
161 81 2 98.1395 98.6454 102.606
162 82 2 97.781 97.7696 98.817
163 83 2 101.206 97.4959 100.394
164 84 2 99.0975 100.085 97.702
165 85 2 101.241 99.2343 99.3642
166 86 2 98.2785 97.2415 97.397
167 87 2 102.822 99.1811 101.497
168 88 2 98.3064 102.49 101.361
169 89 2 98.388 98.0696 99.5975
170 90 2 99.4097 101.563 98.9441
171 91 2 102.131 100.668 100.682
172 92 2 98.0333 102.472 100.279
173 93 2 99.6393 102.31 101.961
174 94 2 99.86 100.818 101.121
175 95 2 100.765 98.606 98.6446
176 96 2 102.918 98.5627 98.4217
177 97 2 102.75 98.8191 102.524
178 98 2 100.911 99.8157 97.0564
179 99 2 97.4585 101.646 99.9455
180 100 2 101.482 102.84 97.6981
181 101 2 102.655 102.046 102.43
182 102 2 98.8536 98.4514 98.6195
183 103 2 101.521 101.645 100.829
184 104 2 100.363 101.57 102.968
185 105 2 102.561 102.258 99.4083
186 106 2 100.657 102.963 99.3861
187 107 2 99.6181 100.912 99.8696
188 108 2 97.97 97.5465 101.967
189 109 2 98.6678 99.5533 100.61
190 110 2 101.953 100.095 97.4292
191 111 2 98.2332 101.017 99.4098
192 112 2 100.674 102.309 102.136
193 113 2 102.603 100.903 102.495
194 114 2 102.342 100.403 98.5632
195 115 2 100.499 102.614 97.2028
196 116 2 100.276 101.122 98.1982
197 117 2 98.9091 100.63 100.707
198 118 2 101.038 100.563 97.8432
199 119 2 100.092 98.2027 101.838
200 120 2 99.6402 98.8799 101.129
ITEM: TIMESTEP
2000
ITEM: NUMBER OF ATOMS
200
ITEM: BOX BOUNDS pp pp pp
9.6979340614678989e+01 1.0302065938532101e+02
9.7039153677996751e+01 1.0296084632200325e+02
9.7039153677996751e+01 1.0296084632200325e+02
ITEM: ATOMS id mol type x y z
1 1 1 102.845 99.7473 100.397
2 1 1 101.999 99.706 101.267
3 2 1 100.987 98.4993 102.325
4 2 1 101.219 99.6871 101.959
5 3 1 100.171 99.921 98.2088
6 3 1 101.236 99.4596 98.1129
7 4 1 98.197 99.7732 103.032
8 4 1 98.9715 98.9168 97.4673
9 5 1 98.9033 98.3796 101.57
10 5 1 97.7521 98.6007 101.613
11 6 1 102.833 97.1285 102.081
12 6 1 102.146 97.4952 101.188
13 7 1 99.0063 97.877 102.548
14 7 1 98.6365 102.66 102.465
15 8 1 101.792 100.608 101.783
16 8 1 102.55 101.366 101.418
17 9 1 101.142 100.878 102.607
18 9 1 101.635 101.72 101.897
19 10 1 101.101 100.599 100.975
20 10 1 101.47 100.897 99.8683
21 11 1 102.786 102.595 98.3215
22 11 1 97.9116 102.616 98.3207
23 12 1 101.883 98.8172 101.931
24 12 1 102.866 98.137 101.73
25 13 1 98.7078 100.899 102.927
26 13 1 97.7097 100.511 102.389
27 14 1 98.068 101.419 100.858
28 14 1 98.8086 101.579 100.006
29 15 1 102.824 97.4978 99.2502
30 15 1 102.971 102.724 100.254
31 16 1 100.219 102.018 101.034
32 16 1 99.1115 101.62 101.005
33 17 1 97.1662 98.5051 100.615
34 17 1 97.2099 97.388 101.088
35 18 1 102.265 98.967 99.9204
36 18 1 101.971 98.238 99.0791
37 19 1 97.4794 101.426 102.872
38 19 1 97.6454 102.378 102.178
39 20 1 102.502 98.1156 97.4074
40 20 1 101.373 97.901 97.2314
41 21 1 99.8338 98.8811 98.0777
42 21 1 99.2045 97.9201 97.8291
43 22 1 98.2694 101.983 97.4482
44 22 1 99.1665 101.267 97.9011
45 23 1 98.1938 98.2566 97.8177
46 23 1 97.2488 97.5516 97.901
47 24 1 102.129 98.5599 100.943
48 24 1 101.176 97.8339 101.357
49 25 1 100.423 100.913 99.2209
50 25 1 100.598 101.304 100.315
51 26 1 97.0993 98.4766 99.5089
52 26 1 102.339 97.8733 100.104
53 27 1 102.226 97.5376 98.2523
54 27 1 102.361 97.0839 97.0976
55 28 1 98.3023 97.4224 100.839
56 28 1 98.2939 98.5621 100.689
57 29 1 97.2999 102.147 101.113
58 29 1 102.471 101.721 100.402
59 30 1 99.8255 97.1572 102.338
60 30 1 99.0019 97.3241 101.611
61 31 1 102.069 100.053 99.6771
62 31 1 102.097 99.3516 98.7077
63 32 1 99.1672 100.049 102.473
64 32 1 98.4765 99.4243 101.752
65 33 1 100.464 97.7521 97.7251
66 33 1 99.8649 98.4392 102.919
67 34 1 101.768 98.5087 98.0685
68 34 1 101.223 97.5881 98.5783
69 35 1 97.4741 101.352 101.814
70 35 1 97.9953 100.392 101.308
71 36 1 100.185 100.512 97.2944
72 36 1 99.6545 101.112 102.326
73 37 1 99.3176 101.878 102.943
74 37 1 98.374 101.638 102.275
75 38 1 97.519 99.4578 102.22
76 38 1 102.904 100.293 101.579
77 39 1 99.3904 102.962 97.3447
78 39 1 99.9017 102.078 97.922
79 40 1 101.348 98.5147 100.28
80 40 1 100.373 98.1231 100.704
81 41 1 99.3031 102.638 100.732
82 41 1 100.254 97.207 101.264
83 42 1 98.9373 102.444 98.1435
84 42 1 98.4921 102.199 99.2152
85 43 1 100.498 99.1307 100.221
86 43 1 101.03 98.8739 101.233
87 44 1 100.507 99.7722 101.143
88 44 1 101.461 99.6048 100.39
89 45 1 100.748 98.7801 97.4447
90 45 1 99.8646 99.5104 97.1567
91 46 1 102.936 99.5307 99.3031
92 46 1 97.2698 99.7168 98.2008
93 47 1 98.7954 97.1016 99.8809
94 47 1 99.5919 102.709 99.071
95 48 1 98.3285 99.4484 98.1015
96 48 1 97.4482 98.9231 97.4918
97 49 1 97.6745 99.4767 101.023
98 49 1 97.9269 100.332 100.198
99 50 1 97.9118 99.9152 99.1083
100 50 1 98.9526 100.181 99.6411
101 51 1 97.3113 101.727 98.9571
102 51 1 102.4 101.237 99.4485
103 52 1 97.1847 100.847 100.786
104 52 1 97.0671 100.542 99.6545
105 53 1 99.9424 97.7488 98.7148
106 53 1 98.7871 97.4104 98.8335
107 54 1 100.044 97.2784 100.122
108 54 1 99.8088 102.07 99.9355
109 55 1 100.84 97.4802 102.355
110 55 1 101.979 97.8672 102.295
111 56 1 97.3243 100.733 98.6126
112 56 1 98.4743 100.486 98.4677
113 57 1 97.1023 99.9477 97.1357
114 57 1 102.49 99.1848 97.7441
115 58 1 97.3304 102.589 97.2354
116 58 1 97.3211 97.8458 102.787
117 59 1 97.3426 101.716 97.9407
118 59 1 102.379 102.021 97.4368
119 60 1 97.8174 98.8653 98.7948
120 60 1 97.7431 99.2526 99.9724
121 61 1 100.301 100.261 102.145
122 61 1 100.703 101.312 101.694
123 62 1 101.2 102.63 101.203
124 62 1 102.33 102.38 101.322
125 63 1 98.3087 101.558 98.4324
126 63 1 97.8449 100.689 97.6353
127 64 1 102.846 100.866 97.6567
128 64 1 102.369 101.588 98.4294
129 65 1 99.198 99.5774 98.7033
130 65 1 99.4725 100.658 98.7797
131 66 1 99.3217 97.8503 100.731
132 66 1 99.4065 98.8928 100.201
133 67 1 99.3928 99.9071 101.452
134 67 1 98.8235 100.882 101.717
135 68 1 97.5752 102.666 99.3377
136 68 1 97.5641 97.646 100.075
137 69 1 100.065 99.8982 99.2921
138 69 1 99.6991 99.9246 100.462
139 70 1 102.36 99.8418 102.35
140 70 1 101.724 98.9887 97.016
141 71 1 101.778 101.152 97.5512
142 71 1 100.931 101.826 97.9908
143 72 1 100.489 102.799 98.3508
144 72 1 101.587 102.343 98.6752
145 73 1 99.3674 97.9738 99.6203
146 73 1 100.579 98.1666 99.6093
147 74 1 99.847 98.8418 99.2067
148 74 1 98.6777 99.1671 99.5166
149 75 1 100.302 99.2092 102.126
150 75 1 99.21 98.9931 102.323
151 76 1 100.673 100.213 100.072
152 76 1 101.185 100.181 98.9935
153 77 1 101.444 101.197 98.7836
154 77 1 100.54 101.943 99.0539
155 78 1 101.922 102.651 100.399
156 78 1 100.778 102.365 100.233
157 79 1 101.551 101.915 99.6377
158 79 1 101.843 97.2001 99.3941
159 80 1 101.704 102.762 102.113
160 80 1 101.424 101.992 102.945
161 81 2 98.2196 98.643 102.669
162 82 2 97.8023 97.7645 98.7793
163 83 2 101.19 97.5069 100.289
164 84 2 99.1663 100.079 97.7606
165 85 2 101.255 99.1573 99.2945
166 86 2 98.2858 97.2608 97.3819
167 87 2 102.87 99.2254 101.492
168 88 2 98.3261 102.414 101.395
169 89 2 98.3451 98.1552 99.5934
170 90 2 99.4615 101.667 98.9637
171 91 2 102.215 100.682 100.676
172 92 2 98.0224 102.44 100.313
173 93 2 99.5169 102.194 101.835
174 94 2 99.8884 100.789 101.091
175 95 2 100.727 98.5095 98.6246
176 96 2 102.942 98.5621 98.4461
177 97 2 102.734 98.8322 102.537
178 98 2 100.959 99.7767 97.082
179 99 2 97.3829 101.641 99.9855
180 100 2 101.479 102.744 97.7262
181 101 2 102.675 102.072 102.322
182 102 2 98.8095 98.4682 98.6639
183 103 2 101.509 101.661 100.84
184 104 2 100.36 101.569 102.997
185 105 2 102.556 102.296 99.4022
186 106 2 100.712 102.964 99.3763
187 107 2 99.6826 100.874 99.9546
188 108 2 97.9676 97.6017 102.003
189 109 2 98.6529 99.5415 100.688
190 110 2 101.977 100.02 97.5336
191 111 2 98.1788 101.015 99.3787
192 112 2 100.623 102.32 102.101
193 113 2 102.619 100.957 102.519
194 114 2 102.347 100.42 98.7473
195 115 2 100.562 102.64 97.2067
196 116 2 100.211 101.114 98.2028
197 117 2 98.8701 100.599 100.684
198 118 2 101.059 100.491 97.9508
199 119 2 100.077 98.0792 101.819
200 120 2 99.8283 98.8757 101.209
ITEM: TIMESTEP
3000
ITEM: NUMBER OF ATOMS
200
ITEM: BOX BOUNDS pp pp pp
9.6948982483152150e+01 1.0305101751684785e+02
9.7039153677996751e+01 1.0296084632200325e+02
9.7039153677996751e+01 1.0296084632200325e+02
ITEM: ATOMS id mol type x y z
1 1 1 102.875 99.831 100.438
2 1 1 101.948 99.7138 101.251
3 2 1 100.973 98.5284 102.339
4 2 1 101.206 99.7181 102.014
5 3 1 100.24 99.8634 98.2021
6 3 1 101.351 99.4744 98.0924
7 4 1 98.2698 99.8283 102.914
8 4 1 98.9257 98.9304 97.4192
9 5 1 98.8732 98.3412 101.502
10 5 1 97.6998 98.6177 101.63
11 6 1 102.908 97.2111 102.103
12 6 1 102.173 97.4947 101.215
13 7 1 98.8849 97.889 102.571
14 7 1 98.5695 102.657 102.439
15 8 1 101.762 100.605 101.814
16 8 1 102.578 101.358 101.442
17 9 1 101.14 100.884 102.687
18 9 1 101.664 101.666 101.958
19 10 1 101.081 100.574 100.992
20 10 1 101.46 100.916 99.8948
21 11 1 102.826 102.608 98.276
22 11 1 97.9141 102.548 98.3436
23 12 1 101.85 98.8303 101.933
24 12 1 102.866 98.1494 101.674
25 13 1 98.6894 100.897 102.9
26 13 1 97.7002 100.524 102.305
27 14 1 98.0263 101.46 100.866
28 14 1 98.8592 101.608 100.092
29 15 1 102.879 97.4571 99.1911
30 15 1 102.968 102.756 100.217
31 16 1 100.181 101.979 101.059
32 16 1 99.0399 101.607 101.259
33 17 1 97.0288 98.5048 100.566
34 17 1 97.1394 97.398 101.075
35 18 1 102.254 99.0918 99.9936
36 18 1 102.102 98.2687 99.1373
37 19 1 97.5156 101.458 102.821
38 19 1 97.5526 102.409 102.09
39 20 1 102.56 98.1784 97.3769
40 20 1 101.405 98.036 97.2925
41 21 1 99.8331 98.8462 98.0917
42 21 1 99.273 97.8399 97.8187
43 22 1 98.2921 101.955 97.4132
44 22 1 99.1501 101.183 97.9111
45 23 1 98.1767 98.2772 97.7891
46 23 1 97.1948 97.5551 97.9421
47 24 1 102.015 98.5689 100.945
48 24 1 101.189 97.8561 101.494
49 25 1 100.466 100.914 99.2341
50 25 1 100.564 101.259 100.387
51 26 1 97.0196 98.4739 99.4876
52 26 1 102.416 97.8226 100.163
53 27 1 102.296 97.5951 98.2789
54 27 1 102.448 97.1596 97.1361
55 28 1 98.3523 97.4285 100.834
56 28 1 98.1589 98.5305 100.686
57 29 1 97.2571 102.213 101.074
58 29 1 102.51 101.679 100.441
59 30 1 99.8469 97.3002 102.441
60 30 1 98.999 97.3234 101.653
61 31 1 102.07 100.092 99.674
62 31 1 102.167 99.3411 98.7316
63 32 1 99.2587 100.099 102.472
64 32 1 98.4492 99.5268 101.78
65 33 1 100.459 97.659 97.6834
66 33 1 99.7871 98.3926 103.005
67 34 1 101.797 98.5266 98.1171
68 34 1 101.283 97.5987 98.6726
69 35 1 97.4345 101.359 101.746
70 35 1 97.9526 100.427 101.241
71 36 1 100.064 100.531 97.2765
72 36 1 99.6551 101.12 102.241
73 37 1 99.3015 101.786 102.983
74 37 1 98.4126 101.642 102.195
75 38 1 97.4556 99.4479 102.198
76 38 1 102.965 100.283 101.53
77 39 1 99.3201 102.799 97.3473
78 39 1 99.9327 102.046 97.994
79 40 1 101.38 98.4886 100.135
80 40 1 100.472 98.1091 100.738
81 41 1 99.2957 102.58 100.767
82 41 1 100.159 97.1744 101.371
83 42 1 98.9315 102.296 98.1865
84 42 1 98.4265 102.082 99.2239
85 43 1 100.437 99.0961 100.202
86 43 1 100.998 98.8915 101.263
87 44 1 100.445 99.7858 101.168
88 44 1 101.374 99.5582 100.436
89 45 1 100.691 98.8039 97.518
90 45 1 99.839 99.5006 97.1912
91 46 1 102.965 99.5557 99.3411
92 46 1 97.1983 99.7285 98.2086
93 47 1 98.8564 97.0255 99.8168
94 47 1 99.6836 102.644 99.0272
95 48 1 98.2785 99.476 98.1167
96 48 1 97.4433 98.9856 97.4502
97 49 1 97.625 99.4762 100.993
98 49 1 97.9389 100.301 100.179
99 50 1 97.8705 99.9167 99.1245
100 50 1 98.9383 100.208 99.5533
101 51 1 97.3091 101.756 98.9122
102 51 1 102.399 101.289 99.4121
103 52 1 97.1136 100.848 100.707
104 52 1 97.076 100.576 99.5853
105 53 1 100.014 97.6959 98.7135
106 53 1 98.8302 97.3786 98.7599
107 54 1 100.097 97.2264 100.183
108 54 1 99.8296 101.999 99.9621
109 55 1 100.897 97.4752 102.483
110 55 1 102.048 97.8641 102.372
111 56 1 97.3292 100.738 98.5507
112 56 1 98.4994 100.474 98.4946
113 57 1 97.019 99.9659 97.1168
114 57 1 102.523 99.183 97.7031
115 58 1 97.3208 102.637 97.2146
116 58 1 97.41 97.9139 102.871
117 59 1 97.313 101.748 97.8782
118 59 1 102.328 102.092 97.4944
119 60 1 97.8299 98.8668 98.8457
120 60 1 97.6915 99.2139 99.9652
121 61 1 100.33 100.291 102.119
122 61 1 100.687 101.323 101.728
123 62 1 101.211 102.674 101.237
124 62 1 102.357 102.361 101.363
125 63 1 98.211 101.437 98.3527
126 63 1 97.8209 100.585 97.5956
127 64 1 102.859 100.872 97.6247
128 64 1 102.476 101.61 98.4356
129 65 1 99.2031 99.5356 98.624
130 65 1 99.5019 100.633 98.7519
131 66 1 99.3814 97.7987 100.736
132 66 1 99.3803 98.8148 100.143
133 67 1 99.388 99.8774 101.428
134 67 1 98.7574 100.755 101.781
135 68 1 97.5453 102.67 99.3615
136 68 1 97.5351 97.6485 100.083
137 69 1 100.035 99.849 99.2444
138 69 1 99.7039 99.884 100.376
139 70 1 102.372 99.805 102.256
140 70 1 101.721 99.0495 97.0387
141 71 1 101.87 101.191 97.6405
142 71 1 101.024 101.873 97.9935
143 72 1 100.571 102.804 98.385
144 72 1 101.679 102.462 98.6791
145 73 1 99.4004 97.9077 99.599
146 73 1 100.541 98.1215 99.6263
147 74 1 99.8277 98.7899 99.1525
148 74 1 98.6784 99.1661 99.4566
149 75 1 100.298 99.2599 102.144
150 75 1 99.2268 98.9936 102.261
151 76 1 100.654 100.206 100.028
152 76 1 101.192 100.217 98.9308
153 77 1 101.527 101.237 98.7451
154 77 1 100.559 101.949 99.0196
155 78 1 101.986 102.573 100.395
156 78 1 100.81 102.288 100.325
157 79 1 101.58 101.957 99.6356
158 79 1 101.88 97.1865 99.4539
159 80 1 101.798 102.799 102.137
160 80 1 101.386 102.057 102.938
161 81 2 98.2053 98.6479 102.646
162 82 2 97.798 97.799 98.8059
163 83 2 101.267 97.4566 100.288
164 84 2 99.0512 100.1 97.728
165 85 2 101.25 99.2394 99.3159
166 86 2 98.2679 97.2664 97.4242
167 87 2 102.845 99.1992 101.458
168 88 2 98.2807 102.484 101.368
169 89 2 98.3945 98.1162 99.6326
170 90 2 99.4195 101.602 99.0157
171 91 2 102.177 100.707 100.662
172 92 2 98.0217 102.467 100.293
173 93 2 99.61 102.289 101.916
174 94 2 99.8112 100.798 101.155
175 95 2 100.785 98.5347 98.6549
176 96 2 103.043 98.5568 98.4113
177 97 2 102.755 98.7969 102.509
178 98 2 100.928 99.7706 97.1304
179 99 2 97.3483 101.697 99.9614
180 100 2 101.49 102.856 97.6997
181 101 2 102.671 102.074 102.391
182 102 2 98.7917 98.4399 98.6414
183 103 2 101.516 101.627 100.853
184 104 2 100.336 101.538 103.007
185 105 2 102.595 102.281 99.3861
186 106 2 100.758 102.894 99.4374
187 107 2 99.6591 100.84 99.9186
188 108 2 97.8835 97.6358 101.96
189 109 2 98.6453 99.4761 100.617
190 110 2 101.984 100.063 97.4134
191 111 2 98.155 101.052 99.416
192 112 2 100.659 102.321 102.128
193 113 2 102.683 100.915 102.473
194 114 2 102.386 100.405 98.6674
195 115 2 100.487 102.615 97.2402
196 116 2 100.276 101.087 98.2151
197 117 2 98.8608 100.608 100.64
198 118 2 101.071 100.508 97.852
199 119 2 100.054 98.1714 101.873
200 120 2 99.7909 98.895 101.161
ITEM: TIMESTEP
4000
ITEM: NUMBER OF ATOMS
200
ITEM: BOX BOUNDS pp pp pp
9.6918319247331112e+01 1.0308168075266889e+02
9.7039153677996751e+01 1.0296084632200325e+02
9.7039153677996751e+01 1.0296084632200325e+02
ITEM: ATOMS id mol type x y z
1 1 1 102.945 99.8635 100.442
2 1 1 102.085 99.6561 101.217
3 2 1 101.036 98.5036 102.271
4 2 1 101.259 99.6872 101.89
5 3 1 100.174 99.9245 98.182
6 3 1 101.285 99.5195 98.0656
7 4 1 98.2665 99.7929 102.962
8 4 1 98.9703 98.9007 97.4155
9 5 1 98.8572 98.3188 101.571
10 5 1 97.7282 98.5616 101.546
11 6 1 102.875 97.1631 102.092
12 6 1 102.186 97.4542 101.185
13 7 1 98.8811 97.8756 102.627
14 7 1 98.5727 102.679 102.455
15 8 1 101.831 100.622 101.78
16 8 1 102.632 101.344 101.429
17 9 1 101.195 100.883 102.667
18 9 1 101.673 101.694 101.927
19 10 1 101.117 100.559 101.025
20 10 1 101.483 100.867 99.9043
21 11 1 102.886 102.627 98.3232
22 11 1 97.8892 102.581 98.3436
23 12 1 101.962 98.8289 101.902
24 12 1 102.944 98.1414 101.709
25 13 1 98.6641 100.886 102.911
26 13 1 97.6773 100.472 102.352
27 14 1 98.0275 101.43 100.841
28 14 1 98.8744 101.587 100.09
29 15 1 102.831 97.4621 99.203
30 15 1 103.011 102.757 100.25
31 16 1 100.136 101.971 101.092
32 16 1 99.0419 101.629 101.261
33 17 1 97.0991 98.4608 100.629
34 17 1 97.1208 97.3723 101.096
35 18 1 102.348 99.0828 99.9942
36 18 1 102.05 98.2631 99.1363
37 19 1 97.4297 101.397 102.861
38 19 1 97.5572 102.353 102.175
39 20 1 102.602 98.196 97.4255
40 20 1 101.437 97.9504 97.248
41 21 1 99.8104 98.8467 98.0532
42 21 1 99.1818 97.922 97.7555
43 22 1 98.2854 101.956 97.3988
44 22 1 99.1144 101.232 97.9525
45 23 1 98.133 98.3219 97.8236
46 23 1 97.1484 97.6102 97.9624
47 24 1 102.191 98.4829 100.976
48 24 1 101.242 97.8456 101.372
49 25 1 100.432 100.937 99.1867
50 25 1 100.515 101.292 100.348
51 26 1 96.9968 98.4508 99.4882
52 26 1 102.383 97.8357 100.186
53 27 1 102.246 97.5884 98.2645
54 27 1 102.406 97.163 97.1298
55 28 1 98.2671 97.469 100.837
56 28 1 98.3059 98.5951 100.656
57 29 1 97.2472 102.147 101.09
58 29 1 102.526 101.722 100.417
59 30 1 99.8446 97.3065 102.435
60 30 1 99.0134 97.2826 101.649
61 31 1 102.167 100.09 99.6472
62 31 1 102.12 99.3787 98.6927
63 32 1 99.2373 100.062 102.508
64 32 1 98.3694 99.5249 101.844
65 33 1 100.436 97.6777 97.7036
66 33 1 99.8869 98.3742 102.908
67 34 1 101.781 98.5748 98.0608
68 34 1 101.262 97.6694 98.609
69 35 1 97.4563 101.324 101.796
70 35 1 97.9575 100.414 101.245
71 36 1 100.147 100.54 97.2469
72 36 1 99.6647 101.128 102.268
73 37 1 99.2871 101.823 102.987
74 37 1 98.3514 101.641 102.247
75 38 1 97.4242 99.4524 102.252
76 38 1 103.088 100.266 101.535
77 39 1 99.2888 102.888 97.3351
78 39 1 99.873 102.142 97.9851
79 40 1 101.449 98.5227 100.252
80 40 1 100.389 98.1042 100.666
81 41 1 99.2539 102.563 100.767
82 41 1 100.188 97.1226 101.331
83 42 1 98.8755 102.312 98.1985
84 42 1 98.3754 102.114 99.3055
85 43 1 100.471 99.1184 100.12
86 43 1 100.985 98.8861 101.206
87 44 1 100.419 99.7728 101.14
88 44 1 101.389 99.6621 100.426
89 45 1 100.787 98.7596 97.4666
90 45 1 99.8723 99.4617 97.1545
91 46 1 103.013 99.4937 99.2565
92 46 1 97.1831 99.759 98.1709
93 47 1 98.8688 97.0585 99.8424
94 47 1 99.6121 102.685 98.9875
95 48 1 98.271 99.3904 98.0606
96 48 1 97.3756 98.9894 97.4336
97 49 1 97.6281 99.4802 100.965