LAMMPS (23 Jun 2022)
OMP_NUM_THREADS environment is not set. Defaulting to 1 thread. (src/comm.cpp:98)
  using 1 OpenMP thread(s) per MPI task
Reading data file ...
  orthogonal box = (0 0 0) to (200 200 200)
  1 by 1 by 1 MPI processor grid
  reading atoms ...
  200 atoms
  scanning bonds ...
  1 = max bonds/atom
  reading bonds ...
  80 bonds
Finding 1-2 1-3 1-4 neighbors ...
  special bond factors lj:    0        0        0       
  special bond factors coul:  0        0        0       
     1 = max # of 1-2 neighbors
     0 = max # of 1-3 neighbors
     0 = max # of 1-4 neighbors
     1 = max # of special neighbors
  special bonds CPU = 0.000 seconds
  read_data CPU = 0.004 seconds
Generated 0 of 1 mixed pair_coeff terms from geometric mixing rule
Neighbor list info ...
  update every 1 steps, delay 0 steps, check yes
  max neighbors/atom: 2000, page size: 100000
  master list distance cutoff = 5.5
  ghost atom cutoff = 5.5
  binsize = 2.75, bins = 73 73 73
  1 neighbor lists, perpetual/occasional/extra = 1 0 0
  (1) pair lj/cut, perpetual
      attributes: half, newton on
      pair build: half/bin/newton
      stencil: half/bin/3d
      bin: standard
Setting up Verlet run ...
  Unit style    : lj
  Current step  : 0
  Time step     : 0.002
Per MPI rank memory allocation (min/avg/max) = 7.938 | 7.938 | 7.938 Mbytes
   Step          Temp         Density         PotEng        Enthalpy        Press           Pxx            Pyy            Pzz            Pxy            Pxz            Pyz             Lx             Ly             Lz             Xy             Yz             Xz          Density    
         0   1              2.75e-05       2.2913944e-28  2.4875         2.4875e-05     2.4540872e-05  2.7057051e-05  2.3027077e-05 -8.5634887e-07  1.0219777e-06  4.891355e-07   200            200            200            0              0              0              2.75e-05     
       100   2.5460692      0.00020837979  4.84198       -3.056329      -0.0022160845  -0.0064438455  -9.1411273e-05 -0.00011299676 -0.00011418486  0.00013728392 -2.0090717e-05  101.8253       101.8253       101.8253       0              0              0              0.00020837979
       200   4.2640173      0.00048094567  1.6515352      17.205317      0.0040179672   0.0058416615   0.0033636118   0.0028486284  -4.2624545e-05 -8.577244e-05   7.8886212e-05  77.050516      77.050516      77.050516      0              0              0              0.00048094567
       300   3.4109398      0.00083253532  0.10441452     9.156491       0.0029980724   0.0036044164   0.0028719584   0.0025178425  -3.4032189e-05 -8.0698972e-05  5.233082e-05   64.171177      64.171177      64.171177      0              0              0              0.00083253532
       400   2.6552103      0.0012518399   1.5398004      0.87989039    -0.0052609271  -0.0047319361  -0.0058804226  -0.0051704227  -0.00041500695 -0.00027537615 -0.00021224551  56.013317      56.013317      56.013317      0              0              0              0.0012518399 
       500   1.8153193      0.001735783    1.6589736      11.415965      0.011121047    0.010037959    0.012941336    0.010383846   -0.00051054304  0.00065206311  0.0002006848   50.231454      50.231454      50.231454      0              0              0              0.001735783  
       600   1.8896497      0.0022800012   0.34890898     2.2667532     -0.0018705504  -0.002080945   -0.0023596662  -0.0011710398   0.00015223019 -0.00044212785 -0.00014865093  45.866528      45.866528      45.866528      0              0              0              0.0022800012 
       700   2.0021576      0.0028743996   0.25773233     2.6281504     -0.0016143728  -0.00079915866 -0.0019241631  -0.0021197967  -0.00042376243 -0.00044088831  6.9658099e-05  42.4579        42.4579        42.4579        0              0              0              0.0028743996 
       800   1.0034798      0.0035284043   0.97640455     7.7852699      0.017036328    0.016019629    0.019798552    0.015290804   -0.0012209411   0.0014091913   0.00014822487  39.653493      39.653493      39.653493      0              0              0              0.0035284043 
       900   0.95642601     0.0042287625   0.67968101    -1.4096902     -0.01351988    -0.013527301   -0.015941812   -0.011090527    0.0010452915  -0.0016537103  -0.00028557804  37.331015      37.331015      37.331015      0              0              0              0.0042287625 
      1000   1.4228986      0.0049742091   0.052766614    3.9940018      0.008219017    0.0077612609   0.010073199    0.0068225907  -0.0010855654   0.00037657025  0.00038911535  35.364394      35.364394      35.364394      0              0              0              0.0049742091 
      1100   0.9149326      0.0057767946   0.35232354     5.3635827      0.01914599     0.021371212    0.020281717    0.015785039   -0.0016358867   0.0013836339  -2.8922037e-05  33.644333      33.644333      33.644333      0              0              0              0.0057767946 
      1200   0.68057438     0.0066113785   0.70068546    -2.3239743     -0.024284297   -0.029740312   -0.025105847   -0.018006732    0.0020989494  -0.0022176003  -2.7957972e-05  32.164506      32.164506      32.164506      0              0              0              0.0066113785 
      1300   1.0122212      0.0074958525   0.24500077     4.9726029      0.02192102     0.024842792    0.023774853    0.017145417   -0.0024519907   0.0010495956   0.00025872789  30.84612       30.84612       30.84612       0              0              0              0.0074958525 
      1400   1.0404292      0.0084294723  -0.0081610674   3.3834707      0.014090945    0.018323711    0.012553505    0.01139562    -0.00073847338  0.00031780488  0.00038309794  29.662478      29.662478      29.662478      0              0              0              0.0084294723 
      1500   0.89143746     0.009383784    0.4023722     -1.167508      -0.024742058   -0.038005684   -0.020322952   -0.015897539    0.0014039308  -0.0014938438  -0.00042903662  28.620786      28.620786      28.620786      0              0              0              0.009383784  
      1600   0.85514314     0.010398674    0.46249693     5.6831803      0.037287588    0.047947549    0.036182894    0.02773232    -0.0037953002  -0.00091412742  0.0013871163   27.657626      27.657626      27.657626      0              0              0              0.010398674  
      1700   1.0931298      0.011446729    0.045804139    1.3827437     -0.0030651916  -0.0027168854  -0.0059770367  -0.00050165252  0.0014223656   0.0003148776  -0.00066367941  26.786363      26.786363      26.786363      0              0              0              0.011446729  
      1800   1.1821615      0.012516145    0.10480338     1.0297929     -0.0095508037  -0.022232381   -0.0024103204  -0.0040097092   0.0015335877   0.0014914281  -0.00086346598  26.00064       26.00064       26.00064       0              0              0              0.012516145  
      1900   0.93127223     0.013651101    0.41045528     5.6960959      0.048346205    0.066198897    0.0436485      0.035191218   -0.0074740974  -0.0026086344   0.0010773037   25.259127      25.259127      25.259127      0              0              0              0.013651101  
      2000   0.9816049      0.014801689    0.27169875    -0.16715918    -0.025619076   -0.040500458   -0.021940317   -0.014416454    0.0038456395   0.0057890989  -0.0037421837   24.586901      24.586901      24.586901      0              0              0              0.014801689  
      2100   1.1978762      0.015986374    0.001973885    2.6335918      0.012262822    0.01218378     0.015990044    0.0086146402   4.0355829e-05 -0.0028501111   0.0041265646   23.963904      23.963904      23.963904      0              0              0              0.015986374  
      2200   0.9788095      0.01723356     0.16709915     4.7627444      0.049112075    0.068968519    0.042106429    0.036261276   -0.0022102341  -0.0033071903   0.00039752592  23.371283      23.371283      23.371283      0              0              0              0.01723356   
      2300   0.83860318     0.01847715     0.34024388    -0.99855133    -0.043512185   -0.070377632   -0.036888863   -0.02327006     0.0020137278   0.0047383699  -0.0012148166   22.834731      22.834731      22.834731      0              0              0              0.01847715   
      2400   1.01068        0.019776595    0.090867211    3.710465       0.037955923    0.053412836    0.034613605    0.025841327   -0.0061468101  -0.0059523348  -0.00093704978  22.323231      22.323231      22.323231      0              0              0              0.019776595  
      2500   0.99401587     0.021124033    0.0070864923   3.3455209      0.035620222    0.045606879    0.027105199    0.034148589   -0.0027573243  -0.0022222861  -0.00083500177  21.838122      21.838122      21.838122      0              0              0              0.021124033  
      2600   0.87823329     0.02246157     0.24497782    -0.70750169    -0.04621453    -0.067890463   -0.027382632   -0.043370496    0.0017969895   0.0073579263   0.0079266805   21.395751      21.395751      21.395751      0              0              0              0.02246157   
      2700   0.93977163     0.023871337    0.19506245     4.5178602      0.06337164     0.082112255    0.054546965    0.053455701   -0.0049144611  -0.0052012592  -0.001504771    20.965987      20.965987      20.965987      0              0              0              0.023871337  
      2800   1.0769677      0.02530244    -0.027336339    2.0316063      0.010387073    0.0084452304   0.0087311139   0.013984875   -0.0029740808  -0.0011069426  -0.0036174969   20.563014      20.563014      20.563014      0              0              0              0.02530244   
      2900   1.0931098      0.026729343    0.060345359    0.54787582    -0.027796958   -0.036541701   -0.017467248   -0.029381925    0.00041316909  0.002727428    0.0069439897   20.190394      20.190394      20.190394      0              0              0              0.026729343  
      3000   1.0009284      0.028240597    0.18895128     5.1194015      0.088227852    0.10488203     0.082720382    0.077081149   -0.0054047463  -0.0032284587   0.0021019881   19.823619      19.823619      19.823619      0              0              0              0.028240597  
      3100   1.0632501      0.029739462    0.047845187    0.83767872    -0.021549408   -0.040726621   -0.011520643   -0.012400961   -0.0047473439   0.0052248663  -0.0044970153   19.484826      19.484826      19.484826      0              0              0              0.029739462  
      3200   1.1150391      0.031267144   -0.028741563    1.6774121      0.0011926362  -0.00046530308  0.0081065115  -0.0040633     -0.0010728202  -0.016395118    0.003833909    19.162176      19.162176      19.162176      0              0              0              0.031267144  
      3300   0.98309955     0.032873713    0.058073769    4.3461798      0.084301049    0.097221815    0.08663951     0.069041822   -0.0038898872   0.0017959848   0.0067297273   18.84479       18.84479       18.84479       0              0              0              0.032873713  
      3400   0.92945401     0.034455443    0.058946071    0.15475617    -0.040450691   -0.05936346    -0.034269983   -0.027718629   -0.0061826793  -4.198661e-06  -0.0033263801   18.551895      18.551895      18.551895      0              0              0              0.034455443  
      3500   1.0058939      0.036084007   -0.079463677    2.4687772      0.034343584    0.034730029    0.042281455    0.026019267   -0.010428753    0.0030527487   0.0057702017   18.26849       18.26849       18.26849       0              0              0              0.036084007  
      3600   0.95448253     0.03777119    -0.088615781    3.1324209      0.061686241    0.070048181    0.0649539      0.050056642   -0.012249101   -0.0073151053   0.0019891966   17.992327      17.992327      17.992327      0              0              0              0.03777119   
      3700   0.89795015     0.039439034   -0.012692707    0.050678702   -0.04577865    -0.056351445   -0.038510163   -0.042474343    0.0064105409   0.0018770859  -0.011171684    17.735039      17.735039      17.735039      0              0              0              0.039439034  
      3800   0.96076393     0.041172788   -0.083097984    2.9573486      0.060131226    0.056009409    0.069263995    0.055120274   -0.0054012092   0.00034291416  0.00075772946  17.482524      17.482524      17.482524      0              0              0              0.041172788  
      3900   1.0371223      0.042928067   -0.20336494     2.2608043      0.035757682    0.031743196    0.048082635    0.027447213   -0.0033292979   0.0026507933  -0.00029128814  17.24092       17.24092       17.24092       0              0              0              0.042928067  
      4000   1.0312528      0.044672424   -0.15032615     0.81710637    -0.023217978   -0.026150168   -0.016771613   -0.026732154   -0.013976337   -0.0042808631   0.0066036535   17.013528      17.013528      17.013528      0              0              0              0.044672424  
      4100   1.0211258      0.046490489   -0.12952518     3.189679       0.075871376    0.077124224    0.087882832    0.062607072    0.011197774   -0.013513938    0.0038511217   16.788795      16.788795      16.788795      0              0              0              0.046490489  
      4200   1.0397746      0.048315806   -0.19299478     1.560328       0.0088487826  -0.0023662606   0.0067022494   0.022210359   -0.009144581    0.0055989564  -0.010694666    16.574654      16.574654      16.574654      0              0              0              0.048315806  
      4300   1.0566687      0.050145207   -0.23263929     1.2455298     -0.004508915    0.019452738   -0.0018295247  -0.031149958   -0.0059604156  -0.0010169745   0.0085796665   16.370593      16.370593      16.370593      0              0              0              0.050145207  
      4400   1.0140251      0.052041266   -0.23025415     3.3109485      0.0959343      0.10944618     0.11350974     0.064846977   -0.010976867   -8.0553899e-05  0.0055704364   16.169315      16.169315      16.169315      0              0              0              0.052041266  
      4500   0.98118339     0.053919297   -0.25281756     0.90585363    -0.014986869   -0.033275862   -0.031954402    0.020269656    0.0069082761   0.00028795605 -0.010868225    15.979364      15.979364      15.979364      0              0              0              0.053919297  
      4600   0.97280031     0.055839325   -0.28085516     1.3881017      0.011018238    0.013385339    0.029932923   -0.010263549   -0.0036767297  -0.0032775516   7.3852027e-07  15.794074      15.794074      15.794074      0              0              0              0.055839325  
      4700   0.93571058     0.057831333   -0.28014639     2.7313268      0.084902979    0.07784142     0.11420617     0.062661345   -0.018304561   -0.0032595517  -0.0029673117   15.610608      15.610608      15.610608      0              0              0              0.057831333  
      4800   0.91994179     0.059787623   -0.2659451      0.65388347    -0.024631661   -0.032891805   -0.045472606    0.0044694284  -0.0083033831  -0.013205689   -0.0046970467   15.438454      15.438454      15.438454      0              0              0              0.059787623  
      4900   0.94758807     0.061799374   -0.27836497     1.4649857      0.018487869    0.043930448    0.0203625     -0.0088293412  -0.0065244283  -0.0080732061   0.0057602374   15.26908       15.26908       15.26908       0              0              0              0.061799374  
      5000   1.0058923      0.063867135   -0.33467398     2.4290491      0.073297918    0.073670978    0.088942159    0.057280619   -0.00082093326  0.022612926   -0.0057935353   15.102485      15.102485      15.102485      0              0              0              0.063867135  
      5100   1.0371367      0.065888446   -0.32503574     0.9390565     -0.01700127    -0.024041263   -0.012585444   -0.014377103   -0.011319809   -0.02096022     0.0029008767   14.946441      14.946441      14.946441      0              0              0              0.065888446  
      5200   1.0511948      0.067973415   -0.30480823     2.2022323      0.057970966    0.04592206     0.071324907    0.056665931   -0.012370437   -0.0031178013   0.0014094879   14.792033      14.792033      14.792033      0              0              0              0.067973415  
      5300   1.0383111      0.070091041   -0.29352711     2.1781232      0.058747188    0.069205705    0.054667581    0.052368278    0.010969817    0.01894807     0.00025826712  14.641539      14.641539      14.641539      0              0              0              0.070091041  
      5400   1.0362843      0.072182475   -0.29883184     0.86127537    -0.025365385   -0.050107776   -0.0344877      0.0084993197  -0.011385149    0.0060765212   0.011686549    14.498741      14.498741      14.498741      0              0              0              0.072182475  
      5500   1.0074969      0.074365573   -0.28821865     2.4432499      0.08300411     0.089086177    0.10658145     0.053344704   -0.0011276687  -0.0060502807   0.00079781531  14.355454      14.355454      14.355454      0              0              0              0.074365573  
      5600   0.9795743      0.076551451   -0.29565354     1.2974506      0.0091228078   0.0068281687   0.013767736    0.0067725192  -0.016861137   -0.015460752   -0.0041248178   14.217495      14.217495      14.217495      0              0              0              0.076551451  
      5700   1.0033144      0.078736732   -0.35460744     1.1781203      0.0025253718   0.023097223   -0.020534918    0.0050138111   0.0045772064   0.012318883   -0.016277863    14.084727      14.084727      14.084727      0              0              0              0.078736732  
      5800   1.0156896      0.080983103   -0.41266594     2.2268377      0.082719588    0.091208858    0.069154663    0.087795241   -0.0048712449   0.0069924349  -0.0057600514   13.953273      13.953273      13.953273      0              0              0              0.080983103  
      5900   0.98789346     0.08323038    -0.41092019     1.1224385      0.0044587022  -0.0074676235   0.0072966039   0.013547126   -0.02049414    -0.012984484   -0.0053073139   13.826543      13.826543      13.826543      0              0              0              0.08323038   
      6000   1.0056496      0.085484966   -0.45538668     1.251844       0.01603221     0.027341203    0.021487234   -0.00073180608  0.0044798866   0.012522148   -0.017155196    13.703904      13.703904      13.703904      0              0              0              0.085484966  
      6100   0.983678       0.087790463   -0.45131947     2.3383636      0.10547176     0.1135334      0.10705794     0.095823928    0.012800994    0.019327785    0.010855093    13.582877      13.582877      13.582877      0              0              0              0.087790463  
      6200   0.9544261      0.090081651   -0.43203459     0.92242901    -0.0057338902  -0.042029336    0.020422231    0.0044054343  -0.00042513562  0.02375626     0.0043627886   13.466729      13.466729      13.466729      0              0              0              0.090081651  
      6300   0.97333649     0.092434433   -0.46588623     1.0820314      0.0080008616   0.009508409   -0.014878944    0.02937312     0.01228009    -0.025687652   -0.025660532    13.351487      13.351487      13.351487      0              0              0              0.092434433  
      6400   0.97985589     0.094843169   -0.47745876     1.9956752      0.087143543    0.11183352     0.077373343    0.07222377    -0.012962006    0.021369416    0.015586563    13.237487      13.237487      13.237487      0              0              0              0.094843169  
      6500   0.97874194     0.097204861   -0.45944955     0.86232937    -0.012282578    0.012412977   -0.011717552   -0.037543159    0.013320832   -0.0081489445  -0.010629914    13.129401      13.129401      13.129401      0              0              0              0.097204861  
      6600   0.99941064     0.099632671   -0.4683815      1.1996222      0.015975943   -0.0088875392   0.020695427    0.036119941   -0.013029754    0.0085360247  -0.011888892    13.021878      13.021878      13.021878      0              0              0              0.099632671  
      6700   1.0062127      0.1021099     -0.46107635     1.765301       0.06726302     0.10506689     0.0021584044   0.094563769    0.0013945012  -0.018625977   -0.0541573      12.91571       12.91571       12.91571       0              0              0              0.1021099    
      6800   1.038545       0.10456465    -0.49400433     1.1032686      0.0044910099  -0.017921389    0.039729494   -0.0083350753  -0.044514294    0.019032453   -0.013662801    12.813839      12.813839      12.813839      0              0              0              0.10456465   
      6900   1.063124       0.10704614    -0.53415097     1.3988883      0.033702669    0.063289192    0.047309232   -0.0094904168  -0.021591294    0.011448239    0.048434578    12.714049      12.714049      12.714049      0              0              0              0.10704614   
      7000   1.0367339      0.10956842    -0.54187552     1.9060382      0.089705495    0.081147714    0.10461599     0.083352782   -0.012571841   -0.036356932   -0.0056232568   12.615731      12.615731      12.615731      0              0              0              0.10956842   
      7100   1.0073807      0.11205315    -0.56982047     0.792708      -0.014361881   -0.051657373    0.0014744467   0.0070972848  -0.02720498     0.046910312   -0.051632757    12.521784      12.521784      12.521784      0              0              0              0.11205315   
      7200   1.0092251      0.11459572    -0.64837774     1.1702275      0.032538605    0.049499013   -0.0043180807   0.052434884   -0.0097231772  -0.029763138   -0.0054116378   12.428482      12.428482      12.428482      0              0              0              0.11459572   
      7300   0.98092874     0.11720091    -0.68191628     1.2975187      0.054913827    0.082647765    0.071777906    0.010315811   -0.010912794   -0.020999217    0.043612757    12.335703      12.335703      12.335703      0              0              0              0.11720091   
      7400   0.94229709     0.11981819    -0.68022029     0.27816782    -0.048797624   -0.057175139   -0.029341169   -0.059876565    0.024201827    0.031595658   -0.0045452022   12.245221      12.245221      12.245221      0              0              0              0.11981819   
      7500   0.95560571     0.12250413    -0.72937396     0.73500968     0.0042477883  -0.02376937     0.016886919    0.019625816    0.0084588372  -0.020028005   -0.0068063147   12.155066      12.155066      12.155066      0              0              0              0.12250413   
      7600   0.97444658     0.12524854    -0.77340998     1.1235061      0.050390281    0.073837718    0.048978063    0.028355063   -0.022052507    0.0074760004  -0.0055492235   12.06563       12.06563       12.06563       0              0              0              0.12524854   
      7700   0.95881169     0.12796538    -0.7472748      0.72456109     0.0047474493   0.12077831    -0.08713985    -0.019396116    0.013690142    0.057444662   -0.055459469    11.97963       11.97963       11.97963       0              0              0              0.12796538   
      7800   1.0259912      0.13064032    -0.83306856     0.99982386     0.035819266    0.026744014    0.065332925    0.015380858    0.041036425   -0.09111123     0.068668429    11.897302      11.897302      11.897302      0              0              0              0.13064032   
      7900   1.0943214      0.13332415    -0.94367356     1.5111916      0.099579872    0.060313953    0.1243369      0.11408876    -0.021766318   -0.012827725   -0.051313273    11.816929      11.816929      11.816929      0              0              0              0.13332415   
      8000   1.0827853      0.13597529    -0.9653781      0.96555417     0.038922958    0.13068449     0.0071850489  -0.021100667   -0.0014500547   0.050752693   -0.0044110648   11.739625      11.739625      11.739625      0              0              0              0.13597529   
      8100   1.0513983      0.13865783    -1.0053763      0.98686441     0.053323857    0.063001964    0.04977754     0.047192068   -0.008628722   -0.041149735    0.063912435    11.663425      11.663425      11.663425      0              0              0              0.13865783   
      8200   1.0034566      0.1413928     -1.0408843      0.67274545     0.027760633   -0.047544518    0.063154809    0.067671609   -0.044472851    0.016868486   -0.059458656    11.587732      11.587732      11.587732      0              0              0              0.1413928    
      8300   0.90840775     0.1442299     -0.99802672     0.018432248   -0.04449356    -0.03440429    -0.0091649793  -0.08991141     0.010219925    0.042444796   -0.035353545    11.511249      11.511249      11.511249      0              0              0              0.1442299    
      8400   0.86279234     0.14716944    -0.98802923     0.69010328     0.05223377     0.040782252    0.078124901    0.037794156    0.032167323   -0.027083842   -0.0074791142   11.434092      11.434092      11.434092      0              0              0              0.14716944   
      8500   0.94361184     0.15004056    -1.1180436      0.41302585     0.016740272   -0.0069804688   0.0070808458   0.050120438   -0.064214817    0.051277951    0.015023973    11.360689      11.360689      11.360689      0              0              0              0.15004056   
      8600   0.95668645     0.15293233    -1.1146312      0.30720827    -0.00083627307 -0.062287682    0.061599423   -0.0018205605  -0.033678444    0.024099288    0.065664053    11.288627      11.288627      11.288627      0              0              0              0.15293233   
      8700   0.98474079     0.15586917    -1.1054947      0.75649188     0.055583088    0.062055992    0.10098761     0.0037056603  -0.0036243422  -0.0017845284   0.010067966    11.217278      11.217278      11.217278      0              0              0              0.15586917   
      8800   1.0099409      0.15880038    -1.0868386      0.51196471     0.01320446    -0.034880357    0.047629905    0.026863834    0.0054841708   0.00098707412 -0.044311146    11.147831      11.147831      11.147831      0              0              0              0.15880038   
      8900   1.081562       0.16173638    -1.1475361      0.72237986     0.0375941     -0.022220271    0.066903937    0.068098635    0.020366581   -0.041019301   -0.029342879    11.079963      11.079963      11.079963      0              0              0              0.16173638   
      9000   1.1224651      0.16466944    -1.1999531      0.79366024     0.047654462    0.058462747    0.00048059992  0.084020039   -0.013243165    0.077567045   -0.036912973    11.013784      11.013784      11.013784      0              0              0              0.16466944   
      9100   1.0833993      0.16764667    -1.1916534      0.54061634     0.017571843   -0.045967799    0.035705487    0.062977841   -0.028912684    0.01353023    -0.0043922854   10.948196      10.948196      10.948196      0              0              0              0.16764667   
      9200   1.0685413      0.17067944    -1.266237       0.58962739     0.040507899    0.13113147    -0.057644362    0.048036593   -0.02880169    -0.041201954   -0.038774938    10.882963      10.882963      10.882963      0              0              0              0.17067944   
      9300   1.0941668      0.17363839    -1.4159672      0.33868682     0.019196513    0.045117025    0.030259129   -0.017786616   -0.0086473515   0.084450458    0.027818105    10.82079       10.82079       10.82079       0              0              0              0.17363839   
      9400   0.98562025     0.17658139    -1.3714336      0.23291583     0.021400246   -0.023742489    0.15079129    -0.062848066    0.062100944   -0.055770619    0.057335211    10.760338      10.760338      10.760338      0              0              0              0.17658139   
      9500   0.90705221     0.179636      -1.3480838      0.25669455     0.040990147    0.054163936   -0.031071223    0.099877729    0.029403888    0.045574858   -0.022755407    10.698998      10.698998      10.698998      0              0              0              0.179636     
      9600   0.92776467     0.18271502    -1.4322825     -0.053428671   -0.00096920725  0.0070531006  -0.062880081    0.052919359    0.049032395   -0.017278321   -0.056841136    10.638559      10.638559      10.638559      0              0              0              0.18271502   
      9700   0.90026506     0.1858673     -1.4115416     -0.2564218     -0.031855246   -0.045230846    0.052841148   -0.10317604     0.025464145   -0.013469778    0.009110927    10.578073      10.578073      10.578073      0              0              0              0.1858673    
      9800   0.94595336     0.18916035    -1.4672957     -0.093321255   -0.0065107202   0.030653503   -0.020455006   -0.029730658   -0.033185947    0.069505083   -0.087857496    10.51633       10.51633       10.51633       0              0              0              0.18916035   
      9900   1.0019384      0.1923982     -1.5097331     -0.16705782    -0.026711467   -0.10793169     0.0018210522   0.02597624    -0.00084470208  0.050650078    0.0081177068   10.457003      10.457003      10.457003      0              0              0              0.1923982    
     10000   1.0715556      0.19562845    -1.5745194      0.055086289    0.0053902637   0.019106693    0.00020769667 -0.0031435983  -0.015128278   -0.061084583   -0.0043191525   10.399127      10.399127      10.399127      0              0              0              0.19562845   
     10100   1.1296348      0.19879903    -1.6445633      0.50378237     0.083561678    0.031171031    0.13676352     0.082750482   -0.060041977    0.0062521969   0.042259116    10.343546      10.343546      10.343546      0              0              0              0.19879903   
     10200   1.0621793      0.20188757    -1.5841548     -0.23676965    -0.043665973   -0.023733835   -0.087609305   -0.019654779   -0.045990403    0.090248107    0.0020731778   10.290529      10.290529      10.290529      0              0              0              0.20188757   
     10300   1.0174         0.20518941    -1.5946146     -0.23910498    -0.030397853    0.056175261   -0.091045173   -0.056323646    0.096240494   -0.016882518    0.051334485    10.235033      10.235033      10.235033      0              0              0              0.20518941   
     10400   0.98533971     0.20856398    -1.6189522     -0.089639987    0.011128355    0.025327259   -0.0056434744   0.013701281   -0.0075103305  -0.034102529    0.073938111    10.179531      10.179531      10.179531      0              0              0              0.20856398   
     10500   0.92451527     0.21195133    -1.5819771     -0.0096404245   0.03709102     2.0256772e-05  0.058010377    0.053242426   -0.015591061    0.027049497    0.12560965     10.125011      10.125011      10.125011      0              0              0              0.21195133   
     10600   0.92645469     0.21528389    -1.6127658      0.045848675    0.053993373   -0.011086491    0.099701558    0.073365051    0.13715429    -0.10020197    -0.069890456    10.072495      10.072495      10.072495      0              0              0              0.21528389   
     10700   0.90525053     0.21863793    -1.5872355     -0.71694279    -0.095563401   -0.052184992   -0.094078224   -0.14042699     0.00091157658 -0.024870566   -0.019555987    10.020723      10.020723      10.020723      0              0              0              0.21863793   
     10800   0.9074556      0.22225107    -1.5729076      0.45118088     0.13531272     0.1131205      0.079358645    0.21345903    -0.043391499    0.084867859   -0.02322668     9.9661236      9.9661236      9.9661236      0              0              0              0.22225107   
     10900   0.94611661     0.22563635    -1.5773413     -0.18215629    -0.0034653725   0.10028158    -0.023103533   -0.087574163    0.052575299   -0.045276603   -0.021807597    9.9160309      9.9160309      9.9160309      0              0              0              0.22563635   
     11000   1.0301064      0.22899644    -1.6289876     -0.14484528    -0.011094137   -0.077469523   -0.0016736058   0.045860719   -0.037514071   -0.071914739    0.074100279    9.8672921      9.8672921      9.8672921      0              0              0              0.22899644   
     11100   1.0743008      0.23240966    -1.6344765      0.81092057     0.1778997      0.087016429    0.13652171     0.31016095    -0.069054746    0.022974074    0.089815536    9.8187492      9.8187492      9.8187492      0              0              0              0.23240966   
     11200   1.1502061      0.23562413    -1.7244494      0.40024958     0.087398653    0.064268723    0.094935712    0.10299152     0.034689928    0.066497704    0.028018147    9.7738943      9.7738943      9.7738943      0              0              0              0.23562413   
     11300   1.0863063      0.23885123    -1.6683047     -0.035209287    0.0025585848  -0.015169909    0.029586194   -0.0067405309  -0.0026924362  -0.11000675    -0.028940906    9.7296765      9.7296765      9.7296765      0              0              0              0.23885123   
     11400   1.0185349      0.24223661    -1.6546274     -0.45333374    -0.070219945   -0.039213831   -0.18389324     0.012447237    0.094655908    0.06497492    -0.051723392    9.6841379      9.6841379      9.6841379      0              0              0              0.24223661   
     11500   0.92979046     0.24580667    -1.6038115      0.083965363    0.067052616    0.16989316     0.16798625    -0.13672157     0.088917045    0.039183914    0.16612411     9.6370255      9.6370255      9.6370255      0              0              0              0.24580667   
     11600   0.90683988     0.24948462    -1.6256707     -0.7924714     -0.11799697    -0.040120908   -0.16465487    -0.14921515    -0.016186541   -0.03296834    -0.089374359    9.5894339      9.5894339      9.5894339      0              0              0              0.24948462   
     11700   0.92765827     0.25337945    -1.6805879     -0.55867138    -0.060491678   -0.15172501    -0.10275384     0.073003816    0.013419274    0.042765703   -0.001300678    9.5400452      9.5400452      9.5400452      0              0              0              0.25337945   
     11800   0.9639344      0.25706845    -1.7205185      0.27679016     0.13055258     0.037172647    0.20604262     0.14844247    -0.051672089    0.038931803   -0.065901508    9.494191       9.494191       9.494191       0              0              0              0.25706845   
     11900   1.0175301      0.26060964    -1.7750449     -0.73866221    -0.11426098    -0.19477896    -0.11491499    -0.033089008   -0.070221152   -0.083685252   -0.054277114    9.4509922      9.4509922      9.4509922      0              0              0              0.26060964   
     12000   1.039837       0.26441586    -1.7914373     -0.27830681    -0.0093329656  -0.11533011    -0.052829944    0.14016116     0.12469119    -0.079839772    0.11301538     9.4054243      9.4054243      9.4054243      0              0              0              0.26441586   
     12100   1.0876672      0.26813777    -1.8837561     -0.2488206      0.0028257313   0.037604204    0.034213112   -0.063340122   -0.0045146509   0.039038709    0.087585874    9.3617038      9.3617038      9.3617038      0              0              0              0.26813777   
     12200   1.1250611      0.27174301    -1.9983182      0.12522341     0.10978121     0.12797048     0.16533942     0.036033738    0.047424877   -0.023212257   -0.085654933    9.3201185      9.3201185      9.3201185      0              0              0              0.27174301   
     12300   1.023066       0.27517959    -1.9439954      0.18055082     0.14950264     0.25499763     0.10249212     0.091018172   -0.092237318    0.049457892   -0.051693783    9.2811577      9.2811577      9.2811577      0              0              0              0.27517959   
     12400   0.98932198     0.27856399    -1.9944885     -0.49723413     0.0052398575  -0.013414583   -0.054158886    0.083293042    0.039828817   -0.0022732015  -0.074219242    9.2434175      9.2434175      9.2434175      0              0              0              0.27856399   
     12500   0.92834771     0.28211617    -1.9835815     -0.33481089     0.067505705    0.052899974    0.08183996     0.06777718    -0.092058961    0.11685308     0.068744438    9.2044583      9.2044583      9.2044583      0              0              0              0.28211617   
     12600   0.91509196     0.28583623    -2.0149992     -0.5536228      0.024842184    0.050727828   -0.071942043    0.095740768   -0.011071434   -0.016783173   -0.0019958641   9.1643528      9.1643528      9.1643528      0              0              0              0.28583623   
     12700   0.94349597     0.28968974    -2.0737765     -1.3898222     -0.19072475    -0.20066353    -0.27545264    -0.096058094    0.11017757     0.070511161    0.063913625    9.123536       9.123536       9.123536       0              0              0              0.28968974   
     12800   0.92719593     0.29381904    -2.0354682     -0.95418761    -0.080816094   -0.028895416   -0.044696688   -0.16885618    -0.080472701   -0.069982956    0.027275565    9.0805937      9.0805937      9.0805937      0              0              0              0.29381904   
     12900   0.97070571     0.2978315     -2.0534189     -0.58771947     0.0045814946   0.041675601   -0.023276534   -0.0046545833   0.22120764    -0.061886476   -0.052299894    9.0396306      9.0396306      9.0396306      0              0              0              0.2978315    
     13000   1.0686917      0.30166642    -2.1347378     -0.43905325     0.027605828    0.13081543    -0.072937541    0.024939595    0.053765158    0.007556381    0.0095468284   9.0011618      9.0011618      9.0011618      0              0              0              0.30166642   
     13100   1.0748349      0.30531329    -2.0891919      0.037036092    0.14489525     0.15349363     0.10202255     0.17916957    -0.16597174     0.14538962    -0.013528314    8.9651796      8.9651796      8.9651796      0              0              0              0.30531329   
     13200   1.0563772      0.308672      -2.032645      -0.064361272    0.10989866    -0.010008936    0.10579431     0.2339106      0.014834992   -0.10203008    -0.064467675    8.9325437      8.9325437      8.9325437      0              0              0              0.308672     
     13300   1.0897073      0.31230728    -2.09174       -0.63967144    -0.049492087   -0.060175795   -0.11934143     0.031040963    0.026757414    0.0093898981   0.01098852     8.8977499      8.8977499      8.8977499      0              0              0              0.31230728   
     13400   1.0413975      0.31609894    -2.0594217     -0.77867347    -0.078604497   -0.12787644    -0.017930511   -0.090006543    0.12793285     0.057098302   -0.03989473     8.86203        8.86203        8.86203        0              0              0              0.31609894   
     13500   0.97194685     0.32010859    -2.0177064     -0.96410674    -0.11553913    -0.089040381   -0.19518041    -0.062396607    0.0095920389   0.070793161    0.031023104    8.8248728      8.8248728      8.8248728      0              0              0              0.32010859   
     13600   1.0196495      0.32432487    -2.1373068     -0.90343436    -0.084900719   -0.14500201     0.16188218    -0.27158233     0.015660095   -0.14928737     0.040437294    8.7864642      8.7864642      8.7864642      0              0              0              0.32432487   
     13700   0.94486703     0.32849736    -2.0644582     -0.91756322    -0.078636008   -0.12616016    -0.001431028   -0.10831684    -0.14940198    -0.060784643   -0.063601947    8.7491044      8.7491044      8.7491044      0              0              0              0.32849736   
     13800   0.94502541     0.33265724    -2.0985728     -0.29487407     0.11892446     0.066569362    0.30833803    -0.018134008    0.11406835    -0.065446782    0.029362065    8.7124821      8.7124821      8.7124821      0              0              0              0.33265724   
     13900   1.0145734      0.33683091    -2.2344829     -0.83764198    -0.035952077   -0.11188863     0.029060281   -0.025027882   -0.19199233     0.11864209    -0.030955143    8.6763471      8.6763471      8.6763471      0              0              0              0.33683091   
     14000   0.94705837     0.34089648    -2.1504084     -1.1618716     -0.13169382     0.019541803   -0.19662802    -0.21799525     0.16101024    -0.023543698    0.13087992     8.6417173      8.6417173      8.6417173      0              0              0              0.34089648   
     14100   0.98881356     0.34509169    -2.2229914     -0.88854899    -0.044348002    0.067376972   -0.14900406    -0.051416919   -0.010684324   -0.041180492    0.039065359    8.6065559      8.6065559      8.6065559      0              0              0              0.34509169   
     14200   1.0044505      0.34923284    -2.2427365     -0.69610765     0.015076234    0.036346865    0.066239374   -0.057357536   -0.049132523   -0.0021809035   0.038933484    8.5724022      8.5724022      8.5724022      0              0              0              0.34923284   
     14300   1.0202475      0.35324535    -2.2468317     -0.91967144    -0.062800304   -0.1015553     -0.21690339     0.13005778     0.03882223     0.006461719    0.025292452    8.5398205      8.5398205      8.5398205      0              0              0              0.35324535   
     14400   0.97585432     0.35750093    -2.1460295     -1.0032626     -0.10195138    -0.058386076   -0.053562834   -0.19390523     0.21127912     0.0084251191   0.061001665    8.5058001      8.5058001      8.5058001      0              0              0              0.35750093   
     14500   1.0221605      0.36197406    -2.1712148     -0.83157844    -0.061186179    0.059258907    0.076752382   -0.31956983     0.0046891663  -0.015962833    0.17081848     8.4706176      8.4706176      8.4706176      0              0              0              0.36197406   
     14600   1.1332582      0.36618416    -2.2992761     -0.36497939     0.08086307    -0.0047685178   0.071308604    0.17604912    -0.040694703    0.019828979   -0.086931305    8.4380296      8.4380296      8.4380296      0              0              0              0.36618416   
     14700   1.0808093      0.37045395    -2.2306032     -0.7116878     -0.031721814    0.072434298   -0.058606617   -0.10899312     0.18581989    -0.03285947     0.037501978    8.4054858      8.4054858      8.4054858      0              0              0              0.37045395   
     14800   1.0304465      0.37472094    -2.207387      -0.93614534    -0.090852681   -0.065215906   -0.04091814    -0.166424      -0.012272236   -0.19810722     0.1258599      8.3734591      8.3734591      8.3734591      0              0              0              0.37472094   
     14900   0.99888558     0.37895002    -2.2546226     -1.0237914     -0.089571918   -0.17189082    -0.15193953     0.055114595    0.044773767    0.073556931   -0.091733911    8.3421933      8.3421933      8.3421933      0              0              0              0.37895002   
     15000   0.94185215     0.3834911     -2.2601857     -0.65335882     0.07011353    -0.1729413      0.14984248     0.23343941     0.0093637437  -0.035172238    0.28788068     8.3091347      8.3091347      8.3091347      0              0              0              0.3834911    
     15100   0.9392754      0.38789768    -2.3014764     -1.1464987     -0.08706217    -0.063138352   -0.059644513   -0.13840365     0.077258694   -0.097498311    0.063628323    8.2775504      8.2775504      8.2775504      0              0              0              0.38789768   
     15200   0.9944919      0.39227729    -2.3981234     -1.3527634     -0.15652546    -0.3399899     -0.0070419098  -0.12254457    -0.094851288   -0.04612283     0.07096722     8.2466299      8.2466299      8.2466299      0              0              0              0.39227729   
     15300   0.98831974     0.39691933    -2.3925962     -1.3317252     -0.1494568     -0.16830339    -0.043472014   -0.23659499    -0.029601294   -0.021061499   -0.087868929    8.2143551      8.2143551      8.2143551      0              0              0              0.39691933   
     15400   0.99063952     0.40158363    -2.3967704     -1.0626304     -0.05271313     0.07735533    -0.10330414    -0.13219058    -0.023811935    0.040770919    0.010557358    8.1824286      8.1824286      8.1824286      0              0              0              0.40158363   
     15500   1.0439453      0.40596335    -2.4681559     -0.74889107     0.059483431   -0.20580852     0.27139166     0.11286715     0.00973984    -0.26608775    -0.14692876     8.1528969      8.1528969      8.1528969      0              0              0              0.40596335   
     15600   1.0495991      0.41014741    -2.4874803     -0.72881352     0.071641611    0.1017208     -0.055137599    0.16834163     0.092678392   -0.12226389    -0.17195537     8.1250785      8.1250785      8.1250785      0              0              0              0.41014741   
     15700   0.94973035     0.41459041    -2.3780809     -1.285007      -0.12226597    -0.06735991    -0.075943055   -0.22349495    -0.15920435    -0.088782752   -0.037218379    8.0959498      8.0959498      8.0959498      0              0              0              0.41459041   
     15800   0.97839077     0.41913326    -2.4905215     -1.7098629     -0.25894416    -0.10276746    -0.29424481    -0.37982022    -0.18682992    -0.10814337     0.064249818    8.0665937      8.0665937      8.0665937      0              0              0              0.41913326   
     15900   0.96179711     0.42404772    -2.5679842     -1.3452141     -0.082000095    0.028915202   -0.19142607    -0.083489421   -0.052706909   -0.083799075   -0.11141227     8.0353102      8.0353102      8.0353102      0              0              0              0.42404772   
     16000   0.92415249     0.42896112    -2.5886592     -2.0297786     -0.31993365    -0.32552742    -0.36460565    -0.26966787    -0.24967382     0.057344431   -0.054257723    8.0045131      8.0045131      8.0045131      0              0              0              0.42896112   
     16100   0.88105618     0.43404382    -2.5507384     -1.1273888      0.042762504   -0.0060421013   0.15181241    -0.017482792   -0.17799927     0.14146041     0.13292785     7.9731457      7.9731457      7.9731457      0              0              0              0.43404382   
     16200   0.97735569     0.43898827    -2.6858132     -1.7895156     -0.22444503    -0.33102402    -0.37610893     0.03379785     0.11174557    -0.10408413    -0.052896074    7.943098       7.943098       7.943098       0              0              0              0.43898827   
     16300   0.94659372     0.44407793    -2.6006421     -0.94244062     0.099073917   -0.10079265    -0.051492223    0.44950662    -0.21981608    -0.18401567     0.12352675     7.9126356      7.9126356      7.9126356      0              0              0              0.44407793   
     16400   1.0155192      0.44853676    -2.6398551     -0.87023967     0.10355203     0.10604962     0.15026845     0.054338013   -0.22422006    -0.10727274     0.21652156     7.8863288      7.8863288      7.8863288      0              0              0              0.44853676   
     16500   1.050725       0.45271688    -2.6396375     -1.2597879     -0.07752056     0.28867375    -0.29521603    -0.22601939    -0.12899958     0.2132667      0.06593173     7.8619812      7.8619812      7.8619812      0              0              0              0.45271688   
     16600   1.0123787      0.45720123    -2.5635544     -1.2348799     -0.075770977   -0.17435845    -0.14779724     0.094842767   -0.18550307     0.016865182    0.032962402    7.8361925      7.8361925      7.8361925      0              0              0              0.45720123   
     16700   1.0426497      0.46183097    -2.6242783     -0.56382674     0.21172719     0.023763137    0.35280621     0.25861223     0.025197901   -0.042973495    0.45230169     7.8099192      7.8099192      7.8099192      0              0              0              0.46183097   
     16800   1.0576937      0.4661806     -2.6843761     -0.72435765     0.16164198    -0.040937326    0.26068606     0.26517719     0.17889236    -0.072834555   -0.15159527     7.7855535      7.7855535      7.7855535      0              0              0              0.4661806    
     16900   1.1141417      0.47054369    -2.8196766     -1.6619602     -0.21608229    -0.10962076    -0.22185221    -0.3167739      0.27842121     0.12603582    -0.047162411    7.7614151      7.7614151      7.7614151      0              0              0              0.47054369   
     17000   1.0831576      0.47535111    -2.818694      -0.56596269     0.2748906      0.35590224     0.23395028     0.23481928     0.0089584673   0.072030431   -0.33790116     7.7351616      7.7351616      7.7351616      0              0              0              0.47535111   
     17100   1.0050299      0.47933353    -2.734617      -1.0477331      0.081432967    0.097476767   -0.049778492    0.19660062    -0.14114491     0.087828822    0.032658225    7.7136801      7.7136801      7.7136801      0              0              0              0.47933353   
     17200   1.0449992      0.48352911    -2.8389991     -1.3212083     -0.018405046    0.17177818    -0.048563826   -0.1784295     -0.074851323    0.018645761    0.066376945    7.6913047      7.6913047      7.6913047      0              0              0              0.48352911   
     17300   1.0752635      0.48789488    -2.9383452     -1.1637964      0.075276826    0.13728529     0.038175704    0.050369486    0.22030265    -0.10830612     0.024471892    7.6682949      7.6682949      7.6682949      0              0              0              0.48789488   
     17400   1.0116382      0.49235348    -2.9083829     -2.0414926     -0.28779388    -0.28099235    -0.066781042   -0.51560827    -0.0010937884   0.059977067    0.029348484    7.6450774      7.6450774      7.6450774      0              0              0              0.49235348   
     17500   0.94441016     0.49747809    -2.8568329     -2.0386953     -0.26745984    -0.27073492    -0.2573308     -0.2743138     -0.055765093    0.078466696   -0.034798939    7.6187357      7.6187357      7.6187357      0              0              0              0.49747809   
     17600   0.96178153     0.50313076    -2.9080966     -2.6387188     -0.5333557     -0.57435039    -0.77082862    -0.25488807    -0.30807125     0.14704689    -0.071968926    7.590096       7.590096       7.590096       0              0              0              0.50313076   
     17700   0.91439925     0.5094867     -2.8408784     -1.9652491     -0.22654168     0.27203405    -0.4878922     -0.46376688     0.11031997     0.052493225   -0.012049653    7.5584012      7.5584012      7.5584012      0              0              0              0.5094867    
     17800   0.99842015     0.51548037    -2.9466606     -1.1865959      0.12649074    -0.070203809    0.36219152     0.087484517   -0.063492512    0.065412735    0.05246113     7.5289923      7.5289923      7.5289923      0              0              0              0.51548037   
     17900   1.0617982      0.52046488    -2.9982967     -1.6930926     -0.13225944    -0.015995205   -0.14380355    -0.23697957     0.16408327     0.18144245     0.18889868     7.50488        7.50488        7.50488        0              0              0              0.52046488   
     18000   1.0825644      0.52541643    -2.9916719     -1.8305014     -0.21711973    -0.15643531    -0.46862487    -0.026299008   -0.14067553     0.022391032   -0.15807322     7.4812301      7.4812301      7.4812301      0              0              0              0.52541643   
     18100   1.1102831      0.53082435    -3.0130284     -1.8122488     -0.22020418    -0.58352237     0.1685823     -0.24567246    -0.16584617    -0.064747296    0.22620908     7.4557376      7.4557376      7.4557376      0              0              0              0.53082435   
     18200   1.0623023      0.53610888    -2.9660305     -1.1751348      0.10011082     0.11660929    -0.19621847     0.37994163     0.073195444   -0.12058986     0.36517539     7.4311591      7.4311591      7.4311591      0              0              0              0.53610888   
     18300   1.0317846      0.54100703    -3.0105688     -1.153653       0.15589721     0.49549583    -0.02249263    -0.0053115696   0.02804326     0.035445654    0.12880166     7.4086644      7.4086644      7.4086644      0              0              0              0.54100703   
     18400   1.0152535      0.5457506     -3.0938585     -1.803654      -0.1116613      0.092535854   -0.27734425    -0.1501755      0.084077243    0.17802721     0.0008620958   7.387137       7.387137       7.387137       0              0              0              0.5457506    
     18500   0.88100654     0.5513493     -2.9684785     -2.8759304     -0.61267642    -0.43662482    -0.60395096    -0.7974535      0.24834678    -0.10809663     0.14307724     7.3620475      7.3620475      7.3620475      0              0              0              0.5513493    
     18600   0.96150044     0.55809875    -3.1151192     -2.4083087     -0.36947605    -0.30057247    -0.46204006    -0.34581561    -0.12533293     0.10282183    -0.066743325    7.3322491      7.3322491      7.3322491      0              0              0              0.55809875   
     18700   0.98533818     0.56449622    -3.1392328     -1.8394722     -0.087679919    0.042394151   -0.056634368   -0.24879954    -0.13782022    -0.00068557772 -0.13543242     7.3044448      7.3044448      7.3044448      0              0              0              0.56449622   
     18800   0.96869537     0.57038619    -3.0816059     -2.301216      -0.34502551    -0.49307813    -0.2243003     -0.31769811     0.24262892    -0.027530618   -0.05585911     7.2792152      7.2792152      7.2792152      0              0              0              0.57038619   
     18900   1.0260516      0.57638419    -3.1185542     -1.3799067      0.1086042      0.058676218    0.21891325     0.048223144    0.10078839    -0.2005238      0.12049138     7.2538773      7.2538773      7.2538773      0              0              0              0.57638419   
     19000   1.0138389      0.58133772    -3.0504373     -1.2916208      0.12982959     0.11489236     0.21345869     0.061137735   -0.22313726    -0.26791562    -0.30935096     7.2332153      7.2332153      7.2332153      0              0              0              0.58133772   
     19100   1.0376503      0.58578668    -3.0454173     -2.1416659     -0.34345301    -0.67489554    -0.038613644   -0.31684984     0.41077577     0.3021012      0.17240281     7.214857       7.214857       7.214857       0              0              0              0.58578668   
     19200   1.0553837      0.59117569    -3.0550697     -1.4250463      0.02948527     0.35638982    -0.045592325   -0.22234168    -0.27232827    -0.015449042    0.079424926    7.1928671      7.1928671      7.1928671      0              0              0              0.59117569   
     19300   1.0856627      0.59640826    -3.1162227     -1.6031721     -0.058177423    0.09112109    -0.22958158    -0.036071776    0.0081989266   0.19580374    -0.12929005     7.1717698      7.1717698      7.1717698      0              0              0              0.59640826   
     19400   1.0172748      0.60159017    -3.0943648     -2.0397666     -0.25358911    -0.36560394    -0.28839992    -0.10676347    -0.37413576    -0.20027985    -0.36914463     7.1511187      7.1511187      7.1511187      0              0              0              0.60159017   
     19500   0.99108732     0.60734989    -3.2020674     -1.9056327     -0.10091011    -0.14713439     0.21407995    -0.36967589     0.0093848564  -0.022813425    0.30570197     7.1284412      7.1284412      7.1284412      0              0              0              0.60734989   
     19600   0.93288404     0.61317029    -3.2105579     -2.476554      -0.36696878    -0.60726082    -0.064604153   -0.42904135     0.014505427    0.082970034   -0.15762065     7.1058144      7.1058144      7.1058144      0              0              0              0.61317029   
     19700   0.95925501     0.61940037    -3.2751105     -2.2974897     -0.25568134    -0.067240213   -0.44693613    -0.25286769    -0.11842726     0.037513224   -0.0044765024   7.0819101      7.0819101      7.0819101      0              0              0              0.61940037   
     19800   0.9721538      0.6258022     -3.3005647     -1.8794305     -0.016956588   -0.068951079   -0.016128164    0.03420948     0.015847504   -0.15379466    -0.2584203      7.0576784      7.0576784      7.0576784      0              0              0              0.6258022    
     19900   1.0232188      0.63129074    -3.3629041     -2.7824599     -0.54331739    -0.64834245    -0.49892506    -0.48268468     0.13067692     0.46668334    -0.12310374     7.0371653      7.0371653      7.0371653      0              0              0              0.63129074   
     20000   0.98495276     0.63721391    -3.3010755     -1.1135651      0.41561898     0.16623703     0.99097585     0.089644075    0.11106517    -0.23561477     0.13741363     7.0152929      7.0152929      7.0152929      0              0              0              0.63721391   
     20100   1.0559619      0.64219009    -3.4066326     -2.1939158     -0.21210157    -0.34979505    -0.20722211    -0.079287558   -0.12816483    -0.29450554     0.11796027     6.997126       6.997126       6.997126       0              0              0              0.64219009   
     20200   1.0494151      0.64747746    -3.4292262     -2.1422249     -0.16437141     0.063764744   -0.23591811    -0.32096085     0.30985155    -0.18752053     0.32909534     6.9780275      6.9780275      6.9780275      0              0              0              0.64747746   
     20300   0.95719144     0.6529        -3.3550879     -2.1257319     -0.11826526    -0.40854421    -0.041370129    0.095118555    0.2117473      0.21802966    -0.2293269      6.9586555      6.9586555      6.9586555      0              0              0              0.6529       
     20400   0.94817544     0.65886646    -3.4249037     -2.3064878     -0.17773581    -0.13363441     0.06926438    -0.4688374     -0.17810702    -0.0083054009   0.10456347     6.9375867      6.9375867      6.9375867      0              0              0              0.65886646   
     20500   0.90942369     0.66508186    -3.4280605     -2.7634023     -0.41879398    -0.40478069    -0.31230157    -0.53929967     0.10593984    -0.12325598     0.040294072    6.9159078      6.9159078      6.9159078      0              0              0              0.66508186   
     20600   0.91255761     0.6720187     -3.4728937     -2.9830227     -0.5328016     -0.43673063    -0.70267408    -0.45900009     0.25332306    -0.11057329    -0.24950831     6.8920292      6.8920292      6.8920292      0              0              0              0.6720187    
     20700   0.92034272     0.67923929    -3.4961477     -2.2826715     -0.098881976    0.45650626    -0.160667      -0.59248518    -0.012039178    0.30785818     0.14083462     6.8675204      6.8675204      6.8675204      0              0              0              0.67923929   
     20800   1.0028514      0.68618733    -3.6085601     -2.3838715     -0.16971728    -0.026765184   -0.00034647322 -0.48204018     0.25108047     0.17993303    -0.29765106     6.8442626      6.8442626      6.8442626      0              0              0              0.68618733   
     20900   0.99629104     0.69277113    -3.5559697     -2.2849202     -0.13598149    -0.084002815   -0.19971662    -0.12422505    -0.298873       0.048434831    0.29481919     6.8225119      6.8225119      6.8225119      0              0              0              0.69277113   
     21000   1.0681165      0.69855673    -3.5744414     -1.3073343      0.4273537      0.7160136      0.42818087     0.13786665     0.16074339    -0.14998191     0.22464335     6.8036245      6.8036245      6.8036245      0              0              0              0.69855673   
     21100   1.0900853      0.70298038    -3.511462      -1.0570927      0.52877989     0.66315676     0.70256666     0.22061624    -0.046045116   -0.24967733    -0.1748556      6.7893233      6.7893233      6.7893233      0              0              0              0.70298038   
     21200   1.2312847      0.70652109    -3.6852459     -0.95068497     0.5760514      0.67952705     0.38774254     0.66088462    -0.011068472   -0.063899102   -0.076752441    6.7779628      6.7779628      6.7779628      0              0              0              0.70652109   
     21300   1.1499218      0.70908083    -3.6178593     -1.3590422      0.34974369     0.60326268    -0.026924511    0.47289289     0.22581922     0.013609123    0.14024392     6.769797       6.769797       6.769797       0              0              0              0.70908083   
     21400   1.1099178      0.71208582    -3.6851266     -1.3669408      0.42830894     0.38548376     0.49812436     0.40131872    -0.076146893   -0.0094093206   0.18424944     6.7602608      6.7602608      6.7602608      0              0              0              0.71208582   
     21500   1.0625228      0.71496406    -3.7092588     -1.497048       0.40713656     0.54190024     0.54237436     0.13713507     0.48094704     0.1164825      0.19935896     6.7511769      6.7511769      6.7511769      0              0              0              0.71496406   
     21600   1.0341017      0.71792457    -3.723687      -2.241352      -0.039852493    0.17955892    -0.24348424    -0.055632159    0.13488381     0.25177703     0.23016694     6.7418842      6.7418842      6.7418842      0              0              0              0.71792457   
     21700   0.9995592      0.72175622    -3.7247868     -1.8880937      0.22627122    -0.34263001     0.38469251     0.63675116    -0.35033095     0.076848768   -0.23296684     6.7299326      6.7299326      6.7299326      0              0              0              0.72175622   
     21800   1.0808781      0.72623012    -3.9109899     -2.6827456     -0.25415823    -0.046549595   -0.8233538      0.1074287     -0.066477772   -0.45691275     0.00091817422  6.7160843      6.7160843      6.7160843      0              0              0              0.72623012   
     21900   0.99617919     0.73137273    -3.8465408     -1.9629622      0.2638136      0.19442705     0.34050249     0.25651128    -0.092878696    0.5727657      0.40921108     6.700306       6.700306       6.700306       0              0              0              0.73137273   
     22000   0.98416018     0.73594203    -3.8814036     -2.1343613      0.1861152     -0.060451013   -0.14515279     0.76394939    -0.47225543     0.07419309    -0.047576721    6.6864103      6.6864103      6.6864103      0              0              0              0.73594203   
     22100   0.96336242     0.74068147    -3.8905465     -2.4971037     -0.029880166   -0.25188366    -0.2075464      0.36978957     0.02343627    -0.038613851   -0.22119992     6.6721182      6.6721182      6.6721182      0              0              0              0.74068147   
     22200   0.92532118     0.74615951    -3.8568941     -2.5551964     -0.053821254   -0.071491423   -0.11254393     0.022571588    0.64490894     0.099988202    0.058351619    6.65575        6.65575        6.65575        0              0              0              0.74615951   
     22300   0.97223887     0.75079382    -3.9170445     -1.5357895      0.63489067     0.89840045     0.36507054     0.64120102    -0.28694608    -0.39991046    -0.24422639     6.6420274      6.6420274      6.6420274      0              0              0              0.75079382   
     22400   1.0259003      0.75372161    -3.9672636     -1.7414038      0.47601189     0.57444051     0.34197689     0.51161828    -0.02503604     0.12302874    -0.2021164      6.6334161      6.6334161      6.6334161      0              0              0              0.75372161   
     22500   1.0529374      0.75690868    -3.9838991     -1.7237994      0.47381844     0.46704735     0.57709801     0.37730997     0.1330974     -0.07684961    -0.077355801    6.6240926      6.6240926      6.6240926      0              0              0              0.75690868   
     22600   1.0495049      0.76032705    -3.9676862     -1.0407064      0.94045105     1.1511414      0.78926874     0.88094301    -0.31957159    -0.28517325     0.0019936065   6.6141506      6.6141506      6.6141506      0              0              0              0.76032705   
     22700   1.0443878      0.76274671    -3.9767924     -1.9289012      0.33917429     0.058722632    0.39601053     0.56278971     0.13102965     0.22326167     0.023607377    6.6071492      6.6071492      6.6071492      0              0              0              0.76274671   
     22800   1.0057135      0.76546689    -3.9847247     -1.8587651      0.43487718     0.33386606     0.26295467     0.70781081     0.0043845067   0.17926195    -0.2621365      6.5993135      6.5993135      6.5993135      0              0              0              0.76546689   
     22900   0.9336356      0.7685797     -3.9692132     -1.8226002      0.52624082     0.91310447    -0.14018792     0.80580592    -0.19199531     0.26457079    -0.038311307    6.5903921      6.5903921      6.5903921      0              0              0              0.7685797    
     23000   0.96666008     0.77214219    -4.0934608     -2.8926651     -0.16983236    -0.065281429    0.1039975     -0.54821316     0.35575146    -0.18788248    -0.61036723     6.580241       6.580241       6.580241       0              0              0              0.77214219   
     23100   0.95765409     0.77664315    -4.1172079     -2.3160364      0.26255675     0.39262097     0.10685588     0.28819341    -0.17850106     0.031320317   -0.15681564     6.5675046      6.5675046      6.5675046      0              0              0              0.77664315   
     23200   0.9703496      0.7806989     -4.1407424     -2.0325362      0.4683905      1.0116011      0.36976204     0.023808412    0.17429733     0.035212865    0.12587237     6.5561121      6.5561121      6.5561121      0              0              0              0.7806989    
     23300   1.0318402      0.78420453    -4.2123767     -2.2594166      0.29438942    -0.40716358     0.7066699      0.58366195     0.14515806    -0.044543866    0.37191414     6.5463282      6.5463282      6.5463282      0              0              0              0.78420453   
     23400   0.98607974     0.78796121    -4.105649      -2.2436375      0.27957397    -0.24337376     0.52576108     0.55633458    -0.27473241    -0.1642469      0.038512581    6.5359083      6.5359083      6.5359083      0              0              0              0.78796121   
     23500   1.0892012      0.79192034    -4.2200238     -2.6182035     -0.017143262    0.16270268    -0.39474788     0.18061542    -0.30396864     0.027443151    0.14533868     6.5249982      6.5249982      6.5249982      0              0              0              0.79192034   
     23600   1.032428       0.79595736    -4.111166      -1.5754265      0.71986432     0.63554252     1.0029924      0.52105802    -0.2231676     -0.17636803     0.082176279    6.5139481      6.5139481      6.5139481      0              0              0              0.79595736   
     23700   1.0925675      0.79864892    -4.2109739     -1.8298131      0.54489913     0.46965688     1.0490795      0.11596103     0.37818601     0.38305617     0.0073464694   6.5066222      6.5066222      6.5066222      0              0              0              0.79864892   
     23800   1.0135155      0.80040914    -4.1734835     -1.5628167      0.79895015     0.50011691     0.82428729     1.0724463     -0.24423038    -0.17903928    -0.14032118     6.501849       6.501849       6.501849       0              0              0              0.80040914   
     23900   0.98532346     0.80219732    -4.2415228     -2.4238489      0.2531141      0.059342559    0.3161914      0.38380835     0.27526664    -0.61824545    -0.10886272     6.4970143      6.4970143      6.4970143      0              0              0              0.80219732   
     24000   0.94057102     0.804374      -4.2453786     -1.8760775      0.7060201      0.78898303     0.38623871     0.94283855     0.11985533    -0.12902618     0.22934737     6.4911486      6.4911486      6.4911486      0              0              0              0.804374     
     24100   0.9453147      0.80666226    -4.2834229     -2.327362       0.39979556     0.37768677     0.31440395     0.50729597    -0.2829235      0.49237843    -0.370486       6.485005       6.485005       6.485005       0              0              0              0.80666226   
     24200   0.9556069      0.80912404    -4.2906336     -1.8849188      0.72046717     0.26807265     1.2575637      0.63576518     0.26501908    -0.17745409    -0.17852125     6.4784214      6.4784214      6.4784214      0              0              0              0.80912404   
     24300   0.98527766     0.81154438    -4.3091944     -1.4335478      1.0366518      0.77629009     1.3861321      0.94753317     0.18949731     0.54313515    -0.16402663     6.4719746      6.4719746      6.4719746      0              0              0              0.81154438   
     24400   1.072191       0.81367386    -4.406331      -2.0613538      0.55088097     0.27602053     0.63000577     0.74661659    -0.12284728    -0.039230031   -0.15274653     6.4663237      6.4663237      6.4663237      0              0              0              0.81367386   
     24500   0.93422787     0.81601481    -4.182155      -1.1397512      1.2225895      1.0973919      0.9019492      1.6684274      0.19230537     0.2464729     -0.39042252     6.4601343      6.4601343      6.4601343      0              0              0              0.81601481   
     24600   1.0345034      0.81731513    -4.2910574     -1.9052033      0.62551196     0.37767035     0.3246487      1.1742168      0.026009517    0.23031405     0.15744165     6.4567065      6.4567065      6.4567065      0              0              0              0.81731513   
     24700   1.1562204      0.81855134    -4.4148914     -1.956996       0.5448846      1.232177       0.50240929    -0.099932456   -0.31914758     0.002886993   -0.070332254    6.4534545      6.4534545      6.4534545      0              0              0              0.81855134   
     24800   1.0169385      0.81949243    -4.1565003     -1.0682468      1.1699915      1.0822604      2.0873354      0.34037856    -0.28637962    -0.59261131     0.41448069     6.4509832      6.4509832      6.4509832      0              0              0              0.81949243   
     24900   1.0752367      0.81944161    -4.2081263     -1.0428825      1.1624546      1.5466313      0.8816961      1.0590365      0.75943856    -0.15914248    -0.083419267    6.4511166      6.4511166      6.4511166      0              0              0              0.81944161   
     25000   1.1608273      0.81907634    -4.3215224     -1.8034723      0.58490638     0.6403585      0.36983134     0.7445293     -0.23121478     0.37316209     0.15952662     6.4520754      6.4520754      6.4520754      0              0              0              0.81907634   
     25100   1.0266853      0.81962263    -4.165328      -1.4039338      0.91579144     0.97819322     0.83341841     0.93576269    -0.14440744     0.32295764     0.47249599     6.4506416      6.4506416      6.4506416      0              0              0              0.81962263   
     25200   0.99852652     0.82029168    -4.2216802     -1.816825       0.68200128     0.5148304      0.31878751     1.2123859     -0.32919617     0.29687        0.5897629      6.4488874      6.4488874      6.4488874      0              0              0              0.82029168   
     25300   1.0434325      0.82144322    -4.3865507     -1.8590005      0.72453326     0.35424236     0.77149921     1.0478582      0.27053566     0.062197784    0.15604884     6.4458725      6.4458725      6.4458725      0              0              0              0.82144322   
     25400   0.91722636     0.82303834    -4.2637666     -1.7624707      0.84723227     1.5533333      0.46828438     0.52007912     0.56160647    -0.36859017    -0.022057262    6.4417056      6.4417056      6.4417056      0              0              0              0.82303834   
     25500   0.90460028     0.82481097    -4.2668914     -1.6502929      0.94964428     1.1320922      1.4588991      0.25794158     0.3656119      0.09041296     0.24959445     6.4370876      6.4370876      6.4370876      0              0              0              0.82481097   
     25600   0.98997919     0.82639965    -4.3895067     -2.1562709      0.56773039     0.73256943     0.31552662     0.65509513    -0.41962068     0.061751317    0.37191914     6.43296        6.43296        6.43296        0              0              0              0.82639965   
     25700   1.0147006      0.82820918    -4.415063      -2.554507       0.26059635     0.44166018     0.75171065    -0.41158179    -0.19812528     0.19451365    -0.11301514     6.4282715      6.4282715      6.4282715      0              0              0              0.82820918   
     25800   0.94956696     0.83114325    -4.3021377     -1.8604418      0.77407184     1.1703026      0.56010579     0.59180716    -0.13525779     0.23315999    -0.25954707     6.4206983      6.4206983      6.4206983      0              0              0              0.83114325   
     25900   1.0313106      0.83369531    -4.4041865     -1.920113       0.71610065     0.63072642     0.941387       0.57618853    -0.058571392    0.20103504    -0.56361491     6.4141401      6.4141401      6.4141401      0              0              0              0.83369531   
     26000   1.0412381      0.83540351    -4.4108461     -1.5834608      0.96704593     0.83210825     1.4555235      0.61350607    -0.24512159    -0.059043209   -0.4182884      6.4097653      6.4097653      6.4097653      0              0              0              0.83540351   
     26100   0.95553091     0.83623755    -4.2884674     -0.80263301     1.5658203      2.1758366      1.3228127      1.1988115      0.057578255   -0.32449094    -0.78734197     6.4076336      6.4076336      6.4076336      0              0              0              0.83623755   
     26200   1.0150878      0.83646411    -4.3892425     -1.4008731      1.1203682      1.3265991      1.1483977      0.8861079      0.43563038    -0.23675783    -0.4482902      6.4070551      6.4070551      6.4070551      0              0              0              0.83646411   
     26300   0.98893613     0.83682537    -4.3948964     -1.6930044      0.93260754     1.08769        0.65802149     1.0521111      0.085964328    0.42536802     0.43156049     6.4061329      6.4061329      6.4061329      0              0              0              0.83682537   
     26400   1.0189932      0.83714557    -4.486518      -2.0259583      0.71516005     0.83064647     0.57657093     0.73826275    -0.30012627    -0.45711672     0.44324142     6.4053161      6.4053161      6.4053161      0              0              0              0.83714557   
     26500   0.93048747     0.83836976    -4.4110419     -1.974493       0.79858249     1.1791282      0.63038915     0.58623017     0.18423888    -0.12106947    -0.29968901     6.4021969      6.4021969      6.4021969      0              0              0              0.83836976   
     26600   0.94412151     0.83993005    -4.4742843     -2.0321948      0.78876163     0.20902226     1.535563       0.62169959    -0.19850045     0.0053434444  -0.087870411    6.3982301      6.3982301      6.3982301      0              0              0              0.83993005   
     26700   0.9190204      0.84192551    -4.4611012     -2.0232382      0.81607457     0.84434962     1.1822356      0.42163847    -0.23558045    -0.1402325     -0.18792599     6.3931712      6.3931712      6.3931712      0              0              0              0.84192551   
     26800   0.89667273     0.84397765    -4.4299702     -1.9426871      0.88157233     0.49350045     1.1479985      1.0032181      0.34877402    -0.53101755    -0.42223647     6.3879853      6.3879853      6.3879853      0              0              0              0.84397765   
     26900   1.0242652      0.8454136     -4.5898394     -2.5610965      0.38429974     0.70160435     0.68352017    -0.2322253      0.0086062231  -0.070787571    0.22024424     6.3843666      6.3843666      6.3843666      0              0              0              0.8454136    
     27000   0.97790461     0.84793159    -4.4652741     -2.0187704      0.76081131     0.37803037     1.5231686      0.38123497     0.037192925   -0.23838212    -0.5360223      6.3780407      6.3780407      6.3780407      0              0              0              0.84793159   
     27100   1.0022189      0.85042102    -4.4177819     -1.0454145      1.450784       1.221621       2.3120113      0.81871973     0.28984375    -0.22051774    -0.36068174     6.3718112      6.3718112      6.3718112      0              0              0              0.85042102   
     27200   1.0921187      0.85090091    -4.4636619     -1.3923059      1.1149654      1.589105       0.70022104     1.0555703     -0.31327326    -0.41652965    -0.058469546    6.3706131      6.3706131      6.3706131      0              0              0              0.85090091   
     27300   1.1814963      0.85120864    -4.5528722     -1.7382756      0.81345628     0.55657545     0.54093879     1.3428546     -0.07427211    -0.33213584     0.49229265     6.3698453      6.3698453      6.3698453      0              0              0              0.85120864   
     27400   1.1202203      0.85119165    -4.4801086     -1.312126       1.1576622      0.76690482     1.2509109      1.4551709      0.3996585     -0.097634037    0.21430477     6.3698877      6.3698877      6.3698877      0              0              0              0.85119165   
     27500   1.0404424      0.85020282    -4.4188262     -1.1999048      1.2877181      2.0358107      0.64509993     1.1822437      0.3324284      0.11668793    -0.37640132     6.3723562      6.3723562      6.3723562      0              0              0              0.85020282   
     27600   1.0796163      0.84882671    -4.5386903     -1.7388549      0.91712493     1.1262012      0.69244885     0.93272475     0.5820429      0.20487358     0.0023806975   6.375798       6.375798       6.375798       0              0              0              0.84882671   
[...]
    193600   0.97782326     0.84087472    -4.3973619     -1.7286499      0.9244354      1.0055106      0.72450158     1.043294      -0.10930599     0.15608844     0.12898408     6.3958332      6.3958332      6.3958332      0              0              0              0.84087472   
    193700   1.0675146      0.84048868    -4.4698043     -1.9694342      0.69310096     0.87239501     0.38447248     0.82243537     0.21308033     0.16734496     0.043702422    6.3968123      6.3968123      6.3968123      0              0              0              0.84048868   
    193800   1.0000372      0.84022796    -4.3460016     -1.168285       1.2871996      1.068403       1.3380008      1.4551948     -0.29836279    -0.33723063     0.080030322    6.3974738      6.3974738      6.3974738      0              0              0              0.84022796   
    193900   1.0021934      0.83926718    -4.3503314     -1.2481847      1.2256147      1.2438263      0.81098103     1.6220368     -0.0034011995  -0.45673553     0.23189528     6.3999141      6.3999141      6.3999141      0              0              0              0.83926718   
    194000   1.0399874      0.83796558    -4.4221493     -1.3701517      1.1425405      1.6877465      0.93659342     0.80328151     0.062742709    0.085209749   -0.033909541    6.4032261      6.4032261      6.4032261      0              0              0              0.83796558   
    194100   0.98356459     0.83688653    -4.3740277     -1.9355461      0.73837087     0.92228568     0.70097332     0.59185361    -0.23533494    -0.25831424     0.19021606     6.4059769      6.4059769      6.4059769      0              0              0              0.83688653   
    194200   0.99042778     0.83683994    -4.4402448     -2.2164751      0.567192       0.52358155     0.7494127      0.42858175    -0.42598304    -0.16449246     0.27414456     6.4060958      6.4060958      6.4060958      0              0              0              0.83683994   
    194300   1.0126098      0.83868441    -4.529791      -2.2789197      0.56386365     0.61242151     0.53864998     0.54051945     0.037468942   -0.1048444      0.35407197     6.4013961      6.4013961      6.4013961      0              0              0              0.83868441   
    194400   0.96637383     0.84224747    -4.5173818     -2.0464221      0.78761371     0.94620243     1.1863814      0.23025731    -0.27643975    -0.11326942     0.079432543    6.3923565      6.3923565      6.3923565      0              0              0              0.84224747   
    194500   0.94717296     0.84749378    -4.5226911     -1.4022671      1.3149778      1.3842273      1.4739867      1.0867193     -0.34966306    -0.049349435    0.33074279     6.3791388      6.3791388      6.3791388      0              0              0              0.84749378   
    194600   0.98246742     0.85238978    -4.5883836     -2.6632312      0.35553936     0.02490803    -0.065993905    1.107704      -0.047052264   -0.46506535    -0.12003064     6.3669018      6.3669018      6.3669018      0              0              0              0.85238978   
    194700   0.91306295     0.85810251    -4.4925909     -1.3569834      1.3829968      1.9420755      1.4246671      0.78224781     0.56820678     0.12849854     0.52106465     6.3527413      6.3527413      6.3527413      0              0              0              0.85810251   
    194800   0.94974862     0.86317499    -4.5285875     -1.5343624      1.2372635      1.1688171      1.29195        1.2510234     -0.071596908    0.1429559     -0.22759844     6.3402728      6.3402728      6.3402728      0              0              0              0.86317499   
    194900   1.0348875      0.86824309    -4.6238962     -1.526952       1.2253077      0.93895155     1.6986284      1.0383432      0.42882845     0.6864756     -0.022022932    6.3279122      6.3279122      6.3279122      0              0              0              0.86824309   
    195000   1.0182169      0.87201202    -4.5678982     -1.024357       1.6043851      1.8870609      0.54573518     2.3803592      0.6359533      0.081349128   -0.5238054      6.3187824      6.3187824      6.3187824      0              0              0              0.87201202   
    195100   1.0358082      0.87296488    -4.5694746     -1.4550371      1.2447636      0.76767896     1.3011136      1.6654982      0.014668125   -0.43767611     0.33607294     6.3164826      6.3164826      6.3164826      0              0              0              0.87296488   
    195200   1.0558589      0.87176321    -4.5857334     -1.0809124      1.5287173      1.2699772      1.4494895      1.8666853     -0.20667822     0.22108645     0.7980589      6.3193835      6.3193835      6.3193835      0              0              0              0.87176321   
    195300   1.0372713      0.86782454    -4.5796902     -1.6379879      1.099435       1.3641939      1.3159801      0.6181309      0.085347646    0.46956594    -0.2488095      6.3289294      6.3289294      6.3289294      0              0              0              0.86782454   
    195400   1.0642953      0.86222805    -4.6543767     -2.1741871      0.69897606     0.5879282      0.73180535     0.77719463     0.12102111     0.26303185    -0.52268488     6.342593       6.342593       6.342593       0              0              0              0.86222805   
    195500   0.9401487      0.85679922    -4.518402      -1.474213       1.278202       1.2950254      1.1868094      1.352771      -0.42091336     0.23325843    -0.26193865     6.3559607      6.3559607      6.3559607      0              0              0              0.85679922   
    195600   0.90798811     0.85226166    -4.5172454     -2.0847749      0.83467267     0.70062952     1.0313952      0.7719933      0.027303113   -0.4098559      0.02294049     6.3672208      6.3672208      6.3672208      0              0              0              0.85226166   
    195700   0.86903456     0.84937079    -4.4912727     -2.7026865      0.37955459     0.035982104    0.44506761     0.65761407    -0.073408657   -0.1490396     -0.40594455     6.3744363      6.3744363      6.3744363      0              0              0              0.84937079   
    195800   0.96510733     0.84798508    -4.6270329     -2.5056697      0.52493397     0.51540415     0.49568183     0.56371593    -0.0091102829  -0.15944148     0.038097475    6.3779066      6.3779066      6.3779066      0              0              0              0.84798508   
    195900   0.99993725     0.84894126    -4.6278872     -2.7160119      0.3237314      0.039744033    0.52039478     0.41105538    -0.2654392      0.18336041     0.13223539     6.3755112      6.3755112      6.3755112      0              0              0              0.84894126   
    196000   0.99654936     0.85294193    -4.5372313     -1.5795714      1.140081       1.3679314      1.0617287      0.99058286     0.44172432    -0.059517659    0.17888209     6.3655276      6.3655276      6.3655276      0              0              0              0.85294193   
    196100   1.0277352      0.8568433     -4.4862132     -1.2310903      1.3407479      0.8174303      1.5836319      1.6211816      0.068646686   -0.19328231     0.14199017     6.3558517      6.3558517      6.3558517      0              0              0              0.8568433    
    196200   1.0496967      0.85875433    -4.4519292     -1.0900467      1.4014949      1.6528322      1.1051847      1.4464679     -0.1172588     -0.36746834    -0.20870072     6.3511336      6.3511336      6.3511336      0              0              0              0.85875433   
    196300   1.1386423      0.85828719    -4.5747682     -1.1276669      1.3636449      0.77627219     1.4301475      1.8845149      0.50772869     0.11783254    -0.11740735     6.3522856      6.3522856      6.3522856      0              0              0              0.85828719   
    196400   1.0420904      0.85565169    -4.4593717     -1.3611009      1.2002078      1.2100693      1.5706081      0.81994596     0.55745225    -0.32984755     0.45397259     6.3588008      6.3588008      6.3588008      0              0              0              0.85565169   
    196500   1.0425813      0.85162488    -4.4923365     -1.4898843      1.119809       1.3645648      1.3148783      0.6799838      0.066078892    0.1092706      0.02488285     6.3688074      6.3688074      6.3688074      0              0              0              0.85162488   
    196600   0.99381369     0.84641409    -4.453581      -1.4651338      1.1581871      0.71004689     1.1425063      1.622008       0.38096419     0.30530651     0.22996007     6.3818501      6.3818501      6.3818501      0              0              0              0.84641409   
    196700   0.89053157     0.84091164    -4.3232212     -1.1529626      1.4074875      1.8148447      1.0678257      1.3397922      0.21731941     0.24228695     0.17177532     6.3957396      6.3957396      6.3957396      0              0              0              0.84091164   
    196800   0.98317399     0.83662417    -4.4636382     -2.7413712      0.19385331     0.45334555    -0.065976358    0.19419072    -0.26921013    -0.50456804    -0.30290719     6.4066464      6.4066464      6.4066464      0              0              0              0.83662417   
    196900   1.0102737      0.8358882     -4.4927401     -2.3539103      0.47949303     0.46853364     0.30911393     0.66083152     0.10920038    -0.47863579     0.25043155     6.4085262      6.4085262      6.4085262      0              0              0              0.8358882    
    197000   1.02244        0.83704183    -4.4825123     -2.1751557      0.59457739     0.58374296     0.87469306     0.32529615    -0.15305486     0.36071537    -0.10863813     6.4055807      6.4055807      6.4055807      0              0              0              0.83704183   
    197100   1.0242425      0.84004419    -4.4433224     -2.0740778      0.64191796     1.2599266      0.29248416     0.37334316    -0.490469      -0.063317401   -0.062621191    6.3979403      6.3979403      6.3979403      0              0              0              0.84004419   
    197200   1.0824482      0.84457415    -4.4682299     -1.0904804      1.3530044      1.0485813      1.6062171      1.4042146     -0.077602267   -0.080161451   -0.51563313     6.3864811      6.3864811      6.3864811      0              0              0              0.84457415   
    197300   1.1455297      0.84807302    -4.4710755     -1.5407411      0.94107677     1.1536726      1.1729053      0.49665237     0.12676957     0.076107025   -0.0256723      6.3776862      6.3776862      6.3776862      0              0              0              0.84807302   
    197400   1.1987284      0.85043724    -4.4789531     -1.2452275      1.1168742      0.74493776     1.4933969      1.1122878     -0.15436957     0.19539563    -0.11432091     6.3717707      6.3717707      6.3717707      0              0              0              0.85043724   
    197500   1.1981803      0.85054882    -4.4962737     -0.93956351     1.3673934      1.5703465      1.3543671      1.1774666     -0.40982252     0.38663047    -0.090837213    6.371492       6.371492       6.371492       0              0              0              0.85054882   
    197600   1.1034433      0.84842067    -4.4637712     -0.76856359     1.5798507      1.2795218      1.6846198      1.7754107      0.28427523     0.38453586     0.14560637     6.3768149      6.3768149      6.3768149      0              0              0              0.84842067   
    197700   1.0048522      0.84388958    -4.426295      -1.520115       1.0789804      0.79914041     0.8864873      1.5513136     -0.029488534   -0.37787935    -0.16064782     6.3882076      6.3882076      6.3882076      0              0              0              0.84388958   
    197800   1.0032696      0.83931269    -4.4826112     -2.2714042      0.54465825     0.8995111     -0.016876713    0.75134036    -0.075722193   -0.14861458    -0.47686015     6.3997985      6.3997985      6.3997985      0              0              0              0.83931269   
    197900   0.91557499     0.83618083    -4.3840643     -1.472181       1.1747486      1.2151877      1.214989       1.0940692      0.28517159    -0.21340254     0.27827014     6.4077785      6.4077785      6.4077785      0              0              0              0.83618083   
    198000   0.96496519     0.83287439    -4.4550096     -2.3236334      0.52332193     0.90929266    -0.067191813    0.72786495    -0.023135276    0.080391955   -0.14499289     6.4162467      6.4162467      6.4162467      0              0              0              0.83287439   
    198100   0.99116026     0.83149693    -4.4679813     -2.2805301      0.53529094     0.76194915     0.43384705     0.41007662    -0.11279363    -0.18149443     0.14262746     6.4197879      6.4197879      6.4197879      0              0              0              0.83149693   
    198200   0.96832854     0.83241719    -4.3920305     -1.8693338      0.81536504     1.2274301      1.2666409     -0.04797587     0.39320234    -0.14973791     0.18787596     6.4174212      6.4174212      6.4174212      0              0              0              0.83241719   
    198300   0.9272026      0.83499735    -4.2804594     -0.80048293     1.5911456      1.2463258      2.2987584      1.2283525     -0.15020318    -0.57363019     0.4200937      6.4108044      6.4108044      6.4108044      0              0              0              0.83499735   
    198400   1.0612208      0.83675354    -4.4130567     -2.1242854      0.53620626     0.97156934     0.74290635    -0.10585693    -0.099049566   -0.47361395     0.25154961     6.4063163      6.4063163      6.4063163      0              0              0              0.83675354   
    198500   1.1009709      0.83976484    -4.4334937     -1.5081791      0.97879593     1.3834254      0.91193636     0.64102608    -0.066182493   -0.36506301     0.4189016      6.3986496      6.3986496      6.3986496      0              0              0              0.83976484   
    198600   1.0647026      0.84336696    -4.3811524     -0.68669005     1.6141996      1.1774644      1.7942531      1.8708812      0.55732472    -0.16292762     0.16452701     6.3895268      6.3895268      6.3895268      0              0              0              0.84336696   
    198700   0.99168285     0.84534107    -4.3216377     -1.0726725      1.3593688      1.5231467      1.4447594      1.1102003     -0.18749458    -0.1806938      0.10630273     6.3845492      6.3845492      6.3845492      0              0              0              0.84534107   
    198800   1.0371485      0.84556164    -4.4900461     -2.0754782      0.66616713     0.90810558     0.5872303      0.50316551    -0.16820636     0.25232111     0.15075886     6.383994       6.383994       6.383994       0              0              0              0.84556164   
    198900   0.9756044      0.84652541    -4.5118626     -1.6179104      1.1065338      1.4826233      1.1140761      0.72290203     0.3207492     -0.15309042    -0.2326237      6.3815703      6.3815703      6.3815703      0              0              0              0.84652541   
    199000   0.90512049     0.84768345    -4.4622771     -2.1288839      0.75713613     1.4398938      0.4863188      0.34519576     0.21973066    -0.085128739    0.12017837     6.378663       6.378663       6.378663       0              0              0              0.84768345   
    199100   1.0205902      0.84957147    -4.6394479     -2.2494296      0.66945268     0.6044891      1.2944395      0.10942941     0.22273055     0.037326508   -0.38990438     6.3739344      6.3739344      6.3739344      0              0              0              0.84957147   
    199200   0.96822517     0.85308746    -4.5603022     -1.5064864      1.2476324      1.2127115      1.0369966      1.4931891     -0.17987804     0.50758735    -0.29231516     6.3651656      6.3651656      6.3651656      0              0              0              0.85308746   
    199300   0.93028699     0.8569341     -4.4963132     -1.3419433      1.3757037      1.8340699      1.2145998      1.0784415     -0.76249953     0.41593058    -0.33590898     6.3556273      6.3556273      6.3556273      0              0              0              0.8569341    
    199400   1.02947        0.86067747    -4.6286574     -1.7041572      1.0860312      1.3268027      0.67340203     1.2578887      0.12387833     0.23660981     0.045155653    6.3463996      6.3463996      6.3463996      0              0              0              0.86067747   
    199500   0.96381148     0.86394898    -4.5267838     -1.2389086      1.4525233      1.5155555      0.78827239     2.0537419      0.10575466    -0.16448122     0.85616896     6.3383789      6.3383789      6.3383789      0              0              0              0.86394898   
    199600   0.96116268     0.86618975    -4.5247455     -1.5307275      1.2280072      0.84367461     1.3814087      1.4589384     -0.50795969     0.52328493     0.22140863     6.3329085      6.3329085      6.3329085      0              0              0              0.86618975   
    199700   0.98701797     0.86798622    -4.5623613     -1.0778056      1.587177       1.4283226      1.4316267      1.9015819     -0.27796477    -0.37580759    -0.076781571    6.3285364      6.3285364      6.3285364      0              0              0              0.86798622   
    199800   0.9985239      0.86751203    -4.57926       -1.4105312      1.3236908      1.0612665      1.2849001      1.6249059      0.40019991    -0.70195921    -0.10329629     6.3296893      6.3296893      6.3296893      0              0              0              0.86751203   
    199900   1.0008903      0.86578348    -4.5884908     -1.7539497      1.0552424      1.0692926      0.88545826     1.2109762     -0.04681675    -0.62054839     0.25437594     6.3338989      6.3338989      6.3338989      0              0              0              0.86578348   
    200000   0.9352227      0.86396838    -4.4958066     -2.1346089      0.75823272     0.75327349     0.52574477     0.99567992     0.12012356    -0.30455146    -0.23097494     6.3383314      6.3383314      6.3383314      0              0              0              0.86396838   
Loop time of 46.4455 on 1 procs for 200000 steps with 200 atoms

Performance: 744097.699 tau/day, 4306.121 timesteps/s
99.8% CPU use with 1 MPI tasks x 1 OpenMP threads

MPI task timing breakdown:
Section |  min time  |  avg time  |  max time  |%varavg| %total
---------------------------------------------------------------
Pair    | 41.554     | 41.554     | 41.554     |   0.0 | 89.47
Bond    | 0.3206     | 0.3206     | 0.3206     |   0.0 |  0.69
Neigh   | 0.45392    | 0.45392    | 0.45392    |   0.0 |  0.98
Comm    | 2.2695     | 2.2695     | 2.2695     |   0.0 |  4.89
Output  | 0.026247   | 0.026247   | 0.026247   |   0.0 |  0.06
Modify  | 1.3143     | 1.3143     | 1.3143     |   0.0 |  2.83
Other   |            | 0.5068     |            |       |  1.09

Nlocal:            200 ave         200 max         200 min
Histogram: 1 0 0 0 0 0 0 0 0 0
Nghost:           3971 ave        3971 max        3971 min
Histogram: 1 0 0 0 0 0 0 0 0 0
Neighs:          54338 ave       54338 max       54338 min
Histogram: 1 0 0 0 0 0 0 0 0 0

Total # of neighbors = 54338
Ave neighs/atom = 271.69
Ave special neighs/atom = 0.8
Neighbor list builds = 545
Dangerous builds = 39
System init for write_data ...
Generated 0 of 1 mixed pair_coeff terms from geometric mixing rule
WARNING: Not all mixed pair coeffs generated from mixing. Use write_data with 'pair ij' option to store all pair coeffs. (src/write_data.cpp:309)
Total wall time: 0:00:46
