LAMMPS (23 Jun 2022)
OMP_NUM_THREADS environment is not set. Defaulting to 1 thread. (src/comm.cpp:98)
  using 1 OpenMP thread(s) per MPI task
Reading data file ...
  orthogonal box = (96.878852 96.878852 96.878852) to (103.12115 103.12115 103.12115)
  1 by 2 by 2 MPI processor grid
  reading atoms ...
  200 atoms
  scanning bonds ...
  4 = max bonds/atom
  reading bonds ...
  204 bonds
Finding 1-2 1-3 1-4 neighbors ...
  special bond factors lj:    0        0        0       
  special bond factors coul:  0        0        0       
     4 = max # of 1-2 neighbors
     4 = max # of 1-3 neighbors
    10 = max # of 1-4 neighbors
    12 = max # of special neighbors
  special bonds CPU = 0.000 seconds
  read_data CPU = 0.010 seconds
Finding 1-2 1-3 1-4 neighbors ...
  special bond factors lj:    0        1        1       
  special bond factors coul:  0        0        0       
     4 = max # of 1-2 neighbors
     4 = max # of 1-3 neighbors
    10 = max # of 1-4 neighbors
    12 = max # of special neighbors
  special bonds CPU = 0.000 seconds
Generated 0 of 1 mixed pair_coeff terms from geometric mixing rule
Neighbor list info ...
  update every 1 steps, delay 0 steps, check yes
  max neighbors/atom: 2000, page size: 100000
  master list distance cutoff = 5.5
  ghost atom cutoff = 5.5
  binsize = 2.75, bins = 3 3 3
  1 neighbor lists, perpetual/occasional/extra = 1 0 0
  (1) pair lj/cut, perpetual
      attributes: half, newton on
      pair build: half/bin/newton
      stencil: half/bin/3d
      bin: standard
Setting up Verlet run ...
  Unit style    : lj
  Current step  : 0
  Time step     : 0.002
WARNING: Inconsistent image flags (src/domain.cpp:819)
Per MPI rank memory allocation (min/avg/max) = 8.605 | 8.606 | 8.606 Mbytes
   Step          Temp         Density         PotEng        Enthalpy        Press           Pxx            Pyy            Pzz            Pxy            Pxz            Pyz             Lx             Ly             Lz             Xy             Yz             Xz          Density    
         0   1.5            0.90446052    -4.1375287      1.4358387      2.7418452      3.0078923      2.6207663      2.596877       0.095978962    0.57362975     0.075545805    6.242296       6.242296       6.242296       0              0              0              0.90446052   
      1000   1.4160042      0.77732124    -2.8724284      0.1176783      0.61953944     1.3032833     -0.3315377      0.88687275     0.35908291    -0.42952263    -0.031762343    6.5655944      6.5655944      6.5655944      0              0              0              0.77732124   
      2000   1.3807422      0.75339485    -2.7248793      0.028509068    0.47438581     1.3092726     -0.099948715    0.21383358    -0.72293356    -0.55331249    -0.092049119    6.6343749      6.6343749      6.6343749      0              0              0              0.75339485   
      3000   1.5279071      0.78759093    -2.7437923      1.6512173      1.5140421      1.3960597      1.7540383      1.3920283      0.18473586    -1.2096272     -0.70754956     6.5369324      6.5369324      6.5369324      0              0              0              0.78759093   
      4000   1.6357941      0.77290984    -3.0545583      0.59391085     0.84812557     1.537959       0.8469322      0.15948548    -0.14789544     0.3160181     -0.2196741      6.5780618      6.5780618      6.5780618      0              0              0              0.77290984   
      5000   1.4711157      0.76004812    -2.9695411     -0.4972183      0.19117462     0.25541712    -0.16075606     0.47886282    -0.096719224    0.53984851    -0.11448647     6.6149596      6.6149596      6.6149596      0              0              0              0.76004812   
      6000   1.4839063      0.80460174    -3.2790095      0.60343841     1.2198623      1.2713898      1.0576836      1.3305136     -0.53288957     0.075438773   -0.015004305    6.4905361      6.4905361      6.4905361      0              0              0              0.80460174   
      7000   1.4327568      0.77367159    -3.0092156     -0.42586562     0.31295746     0.047872449    0.68500496     0.20599498    -0.26288539     0.57421507     0.49399389     6.5759022      6.5759022      6.5759022      0              0              0              0.77367159   
      8000   1.5227354      0.78356308    -3.0062682      1.0885953      1.2979943      1.4932486      1.3867581      1.0139761     -0.84363969    -0.63747052     0.56880934     6.5481141      6.5481141      6.5481141      0              0              0              0.78356308   
      9000   1.405741       0.79171554    -3.2087575      0.091124051    0.86499463     1.016889       1.1966949      0.38139989     0.14671201    -0.1209409      0.08014744     6.5255607      6.5255607      6.5255607      0              0              0              0.79171554   
     10000   1.3449692      0.81174087    -3.1556775      0.49416181     1.2120566      1.5519521      1.0463707      1.037847       0.072684862   -0.040843523    0.46085904     6.4714523      6.4714523      6.4714523      0              0              0              0.81174087   
     11000   1.4957644      0.7710491     -3.0495245     -0.54560947     0.19029959     0.4553634      0.17980636    -0.064270999   -0.045201049    0.14302239    -0.28740423     6.583349       6.583349       6.583349       0              0              0              0.7710491    
     12000   1.3315208      0.80840226    -3.1803329      0.29500806     1.0935817      0.27015955     2.230736       0.77984959     0.27370837    -0.21950579     0.38926852     6.4803489      6.4803489      6.4803489      0              0              0              0.80840226   
     13000   1.3099972      0.78637036    -2.9497312     -0.21977755     0.55387842    -0.066407799    1.6605899      0.067453162    0.26100978     0.026342779   -0.19911958     6.5403127      6.5403127      6.5403127      0              0              0              0.78637036   
     14000   1.4181717      0.79289827    -3.1372221      0.68190442     1.2271941      1.1285137      1.7775601      0.77550849    -0.16976711    -0.33936166     0.039095938    6.5223145      6.5223145      6.5223145      0              0              0              0.79289827   
     15000   1.415984       0.82368996    -3.2839478     -0.24519943     0.69294212     1.2934073      0.22732757     0.55809146     0.48974        0.13854606    -0.41411027     6.4400064      6.4400064      6.4400064      0              0              0              0.82368996   
     16000   1.3886848      0.81085942    -3.352748      -0.15807746     0.82711973     0.71589812     0.78162735     0.98383373     0.22828731     0.21664528    -0.4126878      6.4737964      6.4737964      6.4737964      0              0              0              0.81085942   
     17000   1.3410855      0.79756641    -3.1204768     -0.10649914     0.73405655     1.0352952      0.87528151     0.29159295     0.53664795     0.15485804     0.35762091     6.5095646      6.5095646      6.5095646      0              0              0              0.79756641   
     18000   1.2810606      0.82163093    -3.1807633      1.5099555      2.0755411      2.2593689      2.1723633      1.7948913     -0.080768331    1.0915301     -0.54285629     6.4453816      6.4453816      6.4453816      0              0              0              0.82163093   
     19000   1.4011876      0.81585656    -3.28766       -0.071340717    0.83443341     1.2960159      0.46286042     0.74442394     0.21865002    -0.17377644     0.29496243     6.4605519      6.4605519      6.4605519      0              0              0              0.81585656   
     20000   1.2699611      0.8055517     -3.3992946     -0.92956271     0.42058215     1.4507513      0.68673511    -0.87573992    -0.36271189     0.16632663     0.20446196     6.4879838      6.4879838      6.4879838      0              0              0              0.8055517    
     21000   1.2281316      0.82844512    -3.4362738     -0.53735683     0.80278634     1.129236       0.32485135     0.95427172    -0.078920225    0.49712356    -0.072966925    6.4276612      6.4276612      6.4276612      0              0              0              0.82844512   
     22000   1.3242666      0.82851879    -3.3684152      0.095452898    1.1203081      1.4326367      0.82135912     1.1069285     -0.91967902    -0.3327769     -0.27068964     6.4274707      6.4274707      6.4274707      0              0              0              0.82851879   
     23000   1.2656514      0.84139748    -3.3616537     -0.50349062     0.7413311      0.23236662     0.93714911     1.0544776     -0.025646621    0.39238436     0.24147272     6.3945083      6.3945083      6.3945083      0              0              0              0.84139748   
     24000   1.2534818      0.77235325    -3.0901432     -1.0556747      0.1149029     -0.27711571     0.10193514     0.51988926     0.34522469    -0.79152426    -0.17039111     6.5796415      6.5796415      6.5796415      0              0              0              0.77235325   
     25000   1.192412       0.817261      -3.1799877     -0.020609421    1.0250707      1.5785787      0.76591964     0.73071362    -0.75318003    -0.23537027    -0.22590316     6.4568491      6.4568491      6.4568491      0              0              0              0.817261     
     26000   1.2050433      0.8533385     -3.5229656     -0.60731091     0.86662546     0.89707009     0.66924967     1.0335566      0.10442311    -0.3335694     -0.17904186     6.3645414      6.3645414      6.3645414      0              0              0              0.8533385    
     27000   1.2755848      0.81463826    -3.309373      -1.598234      -0.14268857    -0.59303857    -0.18041625     0.34538911     0.1396143     -0.15475126     0.30616591     6.463771       6.463771       6.463771       0              0              0              0.81463826   
     28000   1.252798       0.84113332    -3.4492291      0.13736224     1.3127723      0.9222262      1.7621574      1.2539333      0.18730266     0.41398942    -0.53355271     6.3951777      6.3951777      6.3951777      0              0              0              0.84113332   
     29000   1.1954348      0.82846227    -3.476911      -0.96483383     0.54820909     0.78976716     0.21319999     0.64166013     0.13724129     0.18062614    -0.34205766     6.4276169      6.4276169      6.4276169      0              0              0              0.82846227   
     30000   1.0952369      0.83284751    -3.5333602     -0.40117478     1.1338418      1.7642652      0.21539254     1.4218677     -0.16330417     0.19212349    -0.2577424      6.4163158      6.4163158      6.4163158      0              0              0              0.83284751   
     31000   1.2549051      0.82945567    -3.4690712     -1.2576585      0.25522116     0.41490824     0.47208008    -0.12132483     0.50151343     0.14650441     0.51823857     6.4250498      6.4250498      6.4250498      0              0              0              0.82945567   
     32000   1.2351429      0.85332724    -3.6157219     -0.70269234     0.82972789     0.23704745     1.6316064      0.62052978    -0.38558129     0.54053413    -0.07838861     6.3645694      6.3645694      6.3645694      0              0              0              0.85332724   
     33000   1.1214882      0.83540674    -3.4613731     -1.0347075      0.57175582     0.9643051     -0.09810196     0.84906433    -0.84637838    -0.37987239    -0.034228225    6.4097571      6.4097571      6.4097571      0              0              0              0.83540674   
     34000   1.1391043      0.84411662    -3.6227961     -0.6667563      0.96377135     0.76025829     0.92297956     1.2080762     -0.31966823    -0.1524672     -0.18708515     6.3876348      6.3876348      6.3876348      0              0              0              0.84411662   
     35000   1.1486888      0.84232279    -3.5242117     -0.11647738     1.2966536      0.96015992     1.4678072      1.4619936      0.077958321   -0.40581284     0.0074430772   6.392166       6.392166       6.392166       0              0              0              0.84232279   
     36000   1.2372122      0.85832281    -3.542758      -0.47101982     0.95601477     0.88840657     0.22603354     1.7536042     -0.34141928    -0.11230397     0.27335415     6.3521977      6.3521977      6.3521977      0              0              0              0.85832281   
     37000   1.1672716      0.83023015    -3.4824864     -0.52403148     0.91800962     1.4394367      0.47841652     0.83617567    -0.76456115     1.0680542     -0.47114555     6.4230513      6.4230513      6.4230513      0              0              0              0.83023015   
     38000   1.1162424      0.84088793    -3.6338482     -1.0149452      0.72844682     0.58912567     0.86855        0.7276648     -0.26755544    -0.16368561     0.50600987     6.3957997      6.3957997      6.3957997      0              0              0              0.84088793   
     39000   1.1635866      0.85888045    -3.6731972     -0.91695901     0.79609254     0.92951975     0.8282904      0.63046748     0.072439609    0.10659759     0.029804162    6.3508227      6.3508227      6.3508227      0              0              0              0.85888045   
     40000   1.0871696      0.85977965    -3.6876063     -0.63870726     1.1148203      1.2981863      1.9195689      0.12670578     0.31216476     0.068069402   -0.19246847     6.3486079      6.3486079      6.3486079      0              0              0              0.85977965   
     41000   1.0473577      0.83102943    -3.6598705     -1.0420208      0.79678226     0.0067140087   1.0929326      1.2907002      0.14079233    -0.16125755     0.24767783     6.4209914      6.4209914      6.4209914      0              0              0              0.83102943   
     42000   1.1371866      0.87924116    -3.8144542      0.1989815      1.8513499      2.4142648      1.3667736      1.7730113      0.52365013     0.0058823055   0.11614656     6.301417       6.301417       6.301417       0              0              0              0.87924116   
     43000   1.1476287      0.84703054    -3.5670729      0.44788113     1.7726949      1.4796999      1.8592967      1.9790881      0.067362141    0.012632081    0.27000427     6.3803015      6.3803015      6.3803015      0              0              0              0.84703054   
     44000   1.1073371      0.83427541    -3.5999648     -0.5198183      1.0826209      1.3816474      0.90018796     0.9660273      0.30903022    -0.17834602    -0.44078982     6.4126531      6.4126531      6.4126531      0              0              0              0.83427541   
     45000   1.081904       0.87816769    -3.8968832     -1.4567382      0.65894777     1.2111706      0.093335121    0.67233754     0.23563165     0.20333101    -0.69036188     6.3039836      6.3039836      6.3039836      0              0              0              0.87816769   
     46000   1.0805513      0.86990627    -3.6855711      0.021007979    1.6558715      1.9649931      1.0551763      1.947445       0.1346938     -0.17121559    -0.30312682     6.3238769      6.3238769      6.3238769      0              0              0              0.86990627   
     47000   0.99693654     0.85713697    -3.703475      -1.4589605      0.58954411     0.14261283     0.89113272     0.73488676     0.44190775    -0.22038613    -0.30166825     6.3551258      6.3551258      6.3551258      0              0              0              0.85713697   
     48000   0.9930722      0.87431764    -3.917709      -1.323816       0.88364327     1.2455297      0.35397739     1.0514227     -0.1973545      0.029774458   -0.029759976    6.3132232      6.3132232      6.3132232      0              0              0              0.87431764   
     49000   1.0481312      0.87077272    -3.8848578     -1.541458       0.61671606    -0.099447035    1.0036465      0.9459487      0.52148227    -0.051334311    0.25056875     6.3217787      6.3217787      6.3217787      0              0              0              0.87077272   
     50000   0.88239498     0.89241024    -3.8595729     -0.64550974     1.5390739      1.4975533      1.5868233      1.5328452     -0.59099803    -0.11346738     0.99896467     6.2702672      6.2702672      6.2702672      0              0              0              0.89241024   
     51000   0.99505315     0.86530367    -3.9658642     -2.2653431      0.16944558    -0.29363379     0.58126233     0.22070819     0.57344804    -0.16240388     0.92236156     6.3350694      6.3350694      6.3350694      0              0              0              0.86530367   
     52000   1.0139898      0.89285868    -3.9163681     -0.75749212     1.3356323      1.3320481      1.3972227      1.277626      -0.21954322    -0.33593009    -0.046865626    6.2692172      6.2692172      6.2692172      0              0              0              0.89285868   
     53000   0.9311706      0.88817544    -4.1097027     -2.1075899      0.49442358     0.47261916     0.14210453     0.86854706     0.26541493    -0.27894965     0.42511926     6.2802169      6.2802169      6.2802169      0              0              0              0.88817544   
     54000   0.97541339     0.87795474    -3.9905759     -1.7881947      0.59587328     0.92006331     0.27456881     0.59298772    -0.35496634    -0.30073673     0.57315037     6.3044932      6.3044932      6.3044932      0              0              0              0.87795474   
     55000   0.97835393     0.89382342    -3.9952591     -0.83836033     1.3786865      1.8535438      0.31633523     1.9661806      0.047422814   -0.14349148     0.37033299     6.2669609      6.2669609      6.2669609      0              0              0              0.89382342   
     56000   0.8341675      0.87938562    -3.882826      -1.7888181      0.67873613     0.55243952     0.86488906     0.6188798      0.3259851     -0.29432       -0.34564369     6.301072       6.301072       6.301072       0              0              0              0.87938562   
     57000   0.93957894     0.8968651     -4.0510718     -1.0843554      1.2755011      1.9119622      1.0520184      0.86252271    -0.12029214    -0.1502531     -0.34750075     6.2598681      6.2598681      6.2598681      0              0              0              0.8968651    
     58000   0.8912865      0.88669277    -3.8569915     -1.1858299      1.0808918      2.3130678     -0.14872599     1.0783337     -0.4671222     -0.067363082   -0.74514749     6.2837154      6.2837154      6.2837154      0              0              0              0.88669277   
     59000   0.8819323      0.89578194    -4.0750485     -1.4384526      1.0751924      0.79761605     1.2948729      1.1330882     -0.12436933     0.69531043     0.14847913     6.2623902      6.2623902      6.2623902      0              0              0              0.89578194   
     60000   0.85301642     0.93295947    -4.2364071     -0.72648355     1.8971277      2.737008       1.1585998      1.7957753     -0.057871155   -0.098720689   -0.23709232     6.1780768      6.1780768      6.1780768      0              0              0              0.93295947   
     61000   0.87460701     0.90030331    -4.3306276     -2.8714684      0.12588552    -0.39774039    -0.081388659    0.85678561     0.32639902     0.44080898     0.56493167     6.2518893      6.2518893      6.2518893      0              0              0              0.90030331   
     62000   0.91620283     0.91374477    -4.3420696     -2.1778805      0.66184725     0.84402846     0.94180359     0.1997097     -0.39664217    -0.13987885    -0.13936143     6.221082       6.221082       6.221082       0              0              0              0.91374477   
     63000   0.8290647      0.92506028    -4.4026289     -1.8241295      1.1278337      1.3525182      1.0255787      1.0054044      0.68128563    -0.040264222   -0.66078519     6.195612       6.195612       6.195612       0              0              0              0.92506028   
     64000   0.84196108     0.90146028    -4.2258441     -2.5870634      0.31317855    -0.088795785    0.20782468     0.82050675     0.056434242   -0.15816862    -0.040106198    6.2492135      6.2492135      6.2492135      0              0              0              0.90146028   
     65000   0.85848178     0.93053923    -4.358876      -1.018231       1.7421056      1.6577298      1.518184       2.0504029     -0.039703614   -0.014630552    0.10085367     6.1834283      6.1834283      6.1834283      0              0              0              0.93053923   
     66000   0.87217155     0.92035094    -4.3224151     -2.1226172      0.75140949     0.11366083     0.93509621     1.2054714      0.082136999   -0.35120994     0.70105726     6.2061615      6.2061615      6.2061615      0              0              0              0.92035094   
     67000   0.79702202     0.94199465    -4.4508619     -1.7122444      1.3265529      1.7733089      0.82542883     1.3809208     -0.46540619     0.38760548    -0.49962092     6.1582609      6.1582609      6.1582609      0              0              0              0.94199465   
     68000   0.75093812     0.89541808    -4.2361233     -2.9443597      0.13918741     0.50080072     0.2163761     -0.2996146      0.10637396     0.026696099   -0.21537577     6.2632384      6.2632384      6.2632384      0              0              0              0.89541808   
     69000   0.75308573     0.96277466    -4.5296685     -1.0793956      2.0360868      1.847938       1.5138348      2.7464876      0.43180839    -0.056435298    0.7246112      6.1136327      6.1136327      6.1136327      0              0              0              0.96277466   
     70000   0.80801362     0.9087379     -4.3146128     -2.4171855      0.57123843     0.63204132     1.2434695     -0.1617955     -0.015526264    0.43265135     0.79478988     6.2324865      6.2324865      6.2324865      0              0              0              0.9087379    
     71000   0.73066993     0.93313214    -4.3900285     -1.7170372      1.3424094      0.8845509      1.585416       1.5572612      0.047470036   -0.10318999     0.31739564     6.1776957      6.1776957      6.1776957      0              0              0              0.93313214   
     72000   0.82747665     0.92202309    -4.4071579     -2.6439198      0.44276324     0.41935932     0.71786991     0.1910605      0.051828896   -0.30011987    -0.43219458     6.2024075      6.2024075      6.2024075      0              0              0              0.92202309   
     73000   0.79100917     0.94318684    -4.4565874     -1.5854619      1.4495447      1.9113217      0.58905707     1.8482553      0.78625899    -0.15067985     0.063800563    6.1556651      6.1556651      6.1556651      0              0              0              0.94318684   
     74000   0.75421353     0.93322273    -4.4718337     -2.4763136      0.7379725      0.93529325     0.32433338     0.95429087     0.41363875    -0.2189097      0.33738014     6.1774958      6.1774958      6.1774958      0              0              0              0.93322273   
     75000   0.77592285     0.93507362    -4.5661939     -2.3810233      0.87310858     0.87549966     0.50364979     1.2401763      0.073221941   -0.22049476    -0.10979752     6.1734172      6.1734172      6.1734172      0              0              0              0.93507362   
     76000   0.85676127     0.96132141    -4.7861992     -2.6575164      0.74281016     0.97903868     0.6486721      0.60071969    -0.17210232    -0.59130083    -0.42667655     6.1167118      6.1167118      6.1167118      0              0              0              0.96132141   
     77000   0.64692264     0.94919129    -4.6844323     -2.4851883      1.0645715      1.8757523      0.51444621     0.80351606    -0.18977668     0.2451745     -0.2731102      6.1426577      6.1426577      6.1426577      0              0              0              0.94919129   
     78000   0.67223103     0.94797765    -4.682843      -2.4666624      1.0452537      1.2205706      1.1586636      0.75652705     0.13894949    -0.14773622    -0.27796456     6.1452779      6.1452779      6.1452779      0              0              0              0.94797765   
     79000   0.7061582      0.94041602    -4.6434781     -2.4595956      0.96601362     1.1824897      1.1893966      0.52615459     0.067757117    0.15063187     0.16158113     6.1617048      6.1617048      6.1617048      0              0              0              0.94041602   
     80000   0.75999957     0.9733268     -4.6511419     -1.1762162      2.0710858      2.2693409      1.6909882      2.2529282     -0.14913539     0.027986886    0.22846508     6.0914591      6.0914591      6.0914591      0              0              0              0.9733268    
     81000   0.71880041     0.95568636    -4.7109633     -2.0064546      1.4176296      1.9691581      1.0235343      1.2601964     -0.17352557    -0.18233647    -0.12031818     6.1287104      6.1287104      6.1287104      0              0              0              0.95568636   
     82000   0.6618264      0.94674509    -4.6896704     -2.7966289      0.77914155     1.0492273      0.71851922     0.56967811     0.069967057   -0.22798113     0.18211813     6.1479436      6.1479436      6.1479436      0              0              0              0.94674509   
     83000   0.60728148     0.97498245    -4.7536538     -2.2875083      1.3825055      1.1454081      1.4102637      1.5918448      0.31255645    -0.29224513     0.76127555     6.0880091      6.0880091      6.0880091      0              0              0              0.97498245   
     84000   0.62081176     0.95909891    -4.6105673     -2.1469002      1.3402148      1.7017035      1.0322246      1.2867163      0.26238637    -0.12403357     0.42124428     6.1214329      6.1214329      6.1214329      0              0              0              0.95909891   
     85000   0.67892323     0.97044891    -4.8453745     -2.6050342      1.0825335      0.81743129     1.2090563      1.2211128     -0.26042562    -0.065438753   -0.059714333    6.0974746      6.0974746      6.0974746      0              0              0              0.97044891   
     86000   0.64566676     0.94050957    -4.7841077     -3.6053804      0.18388649     0.60660951     0.17144499    -0.22639503    -0.1452197      0.17732037     0.038652722    6.1615005      6.1615005      6.1615005      0              0              0              0.94050957   
     87000   0.6378112      0.97292237    -4.9323516     -3.2364473      0.65802379     0.88075138    -0.2103746      1.3036946      0.10572799    -0.16525793    -0.13438691     6.092303       6.092303       6.092303       0              0              0              0.97292237   
     88000   0.60083192     0.9589211     -4.7507545     -3.326083       0.46022097     0.68118094     0.59176825     0.10771372     0.26456191    -0.16732109     0.025451219    6.1218113      6.1218113      6.1218113      0              0              0              0.9589211    
     89000   0.53585891     0.97494686    -4.9169853     -2.9472282      1.036978       1.235151       0.97336488     0.90241825     0.42328178     0.5944534     -0.46106181     6.0880832      6.0880832      6.0880832      0              0              0              0.97494686   
     90000   0.61472538     0.95735896    -4.8482484     -3.5965123      0.29091387     0.44700111    -0.32519193     0.75093244    -0.057229864    0.6913022     -0.027619882    6.1251391      6.1251391      6.1251391      0              0              0              0.95735896   
     91000   0.58566371     0.98899049    -4.9389619     -1.9384529      1.9118139      1.365242       2.969887       1.4003125      0.16263552     0.31278197     0.08850599     6.0591288      6.0591288      6.0591288      0              0              0              0.98899049   
     92000   0.59663245     0.98429122    -4.9902942     -2.9426678      1.0354319      0.32153247     1.3721516      1.4126115      0.26662691    -0.09540308    -0.57865167     6.0687562      6.0687562      6.0687562      0              0              0              0.98429122   
     93000   0.53907086     0.99198848    -5.0204135     -3.299028       0.82679732     0.99625631     0.71392552     0.77021012     0.42329539    -0.44109842    -0.54514508     6.0530187      6.0530187      6.0530187      0              0              0              0.99198848   
     94000   0.57974876     0.97231302    -4.9470888     -3.4669821      0.54346256     1.1638575     -0.042173527    0.50870371    -0.40803429     0.07010841    -0.4376585      6.0935755      6.0935755      6.0935755      0              0              0              0.97231302   
     95000   0.56628623     1.0104636     -5.136483      -2.4172701      1.7214908      0.89351426     2.8268938      1.4440643     -0.51053313     0.2843898     -0.056127191    6.0159008      6.0159008      6.0159008      0              0              0              1.0104636    
     96000   0.57793487     0.98881959    -5.1015742     -2.6244384      1.4513787      1.1548558      1.4102382      1.7890421     -0.090672462    0.02768893    -0.45761987     6.0594779      6.0594779      6.0594779      0              0              0              0.98881959   
     97000   0.55039488     0.9937322     -5.1338483     -3.4514554      0.77775678     0.50238867     0.33630875     1.4945729      0.0033882131   0.32113651    -0.52620103     6.0494762      6.0494762      6.0494762      0              0              0              0.9937322    
     98000   0.48351091     1.0102679     -5.2606967     -3.149345       1.2763465      1.2028195      1.6456433      0.98057661    -0.55959952     0.10438549    -0.39817041     6.0162892      6.0162892      6.0162892      0              0              0              1.0102679    
     99000   0.51943137     1.0025671     -5.1891397     -3.7965264      0.56267889     0.5666646      0.42281845     0.69855361    -0.13845531    -0.11162072    -0.11443819     6.0316538      6.0316538      6.0316538      0              0              0              1.0025671    
    100000   0.46930518     1.008063      -5.2350091     -3.2895561      1.1409578      1.0816581      1.1075467      1.2336686     -0.43440564     0.42036156    -0.16022315     6.0206725      6.0206725      6.0206725      0              0              0              1.008063     
    101000   0.47159149     1.0001742     -5.2304199     -3.7860826      0.67328727     0.26341482     1.0900635      0.66638346     0.097542888   -0.26090453     0.13104025     6.0364603      6.0364603      6.0364603      0              0              0              1.0001742    
    102000   0.4711816      1.002957      -5.2111016     -3.4859928      0.9317199      1.1378299      1.1594712      0.49785857    -0.68203675     0.10362878    -0.13395495     6.0308722      6.0308722      6.0308722      0              0              0              1.002957     
    103000   0.46992155     1.0194721     -5.3139479     -3.0397733      1.4576751      1.1298961      1.5484452      1.6946841      0.1052356      0.20841701    -0.13281304     5.9981288      5.9981288      5.9981288      0              0              0              1.0194721    
    104000   0.4576925      1.0003067     -5.2512991     -3.6977058      0.79159472     0.048871874    1.4559528      0.86995949     0.027027926    0.082804412   -0.59474415     6.0361938      6.0361938      6.0361938      0              0              0              1.0003067    
    105000   0.42345613     1.0247043     -5.3459649     -3.1839728      1.4252554      1.3107566      1.3420766      1.6229331     -0.6599935      0.42582008    -0.68988027     5.9879024      5.9879024      5.9879024      0              0              0              1.0247043    
    106000   0.45840713     1.0063162     -5.3117769     -4.0669515      0.51290358     0.41327504     0.24949398     0.8759417     -0.019012269    0.50837251     0.20889583     6.0241541      6.0241541      6.0241541      0              0              0              1.0063162    
    107000   0.37898045     1.0221526     -5.2876922     -3.2609758      1.3576863      1.0106534      1.2221812      1.8402244     -0.31308135     0.31298344    -0.20596268     5.9928809      5.9928809      5.9928809      0              0              0              1.0221526    
    108000   0.42735874     1.0168745     -5.371139      -3.6475472      1.0037095      0.71881102     0.32342952     1.9688881     -0.51016043    -0.055937045   -0.14570137     6.0032317      6.0032317      6.0032317      0              0              0              1.0168745    
    109000   0.3778828      1.0110795     -5.3275286     -4.0928159      0.61650356     0.64913052     0.47659626     0.7237839      0.071552307   -0.1788519     -0.28691929     6.014679       6.014679       6.014679       0              0              0              1.0110795    
    110000   0.41291227     1.0263639     -5.4252651     -3.33601        1.3743791      1.1479992      1.4029222      1.5722159     -0.030465633    0.26694228    -0.53755161     5.9846733      5.9846733      5.9846733      0              0              0              1.0263639    
    111000   0.36482543     1.0099771     -5.4296659     -4.5869983      0.27376403     0.067642672    0.080193074    0.67345635     0.050356503    0.013461526   -0.15201809     6.0168666      6.0168666      6.0168666      0              0              0              1.0099771    
    112000   0.38890054     1.031201      -5.4591543     -3.3871198      1.3983089      1.0528631      1.3292279      1.8128358     -0.0019867186   0.08295019    -0.09765595     5.9753011      5.9753011      5.9753011      0              0              0              1.031201     
    113000   0.39746637     1.024645      -5.4016546     -3.4268781      1.286915       1.0663152      0.57934454     2.2150851     -0.301619      -0.15727739    -0.2081234      5.9880178      5.9880178      5.9880178      0              0              0              1.024645     
    114000   0.34437976     1.0346592     -5.4780269     -3.585498       1.2966558      0.94653636     0.8115827      2.1318482     -0.48875162    -0.31010011     0.57406807     5.9686363      5.9686363      5.9686363      0              0              0              1.0346592    
    115000   0.35921649     1.0308287     -5.4618735     -3.182835       1.6333085      1.16681        1.4579184      2.2751972     -0.2798602     -0.32284145    -0.024446186    5.9760203      5.9760203      5.9760203      0              0              0              1.0308287    
    116000   0.34511823     1.0323066     -5.5335124     -4.0496039      0.90919892     0.61829739     0.50844045     1.6008589     -0.10755376     0.17456057    -0.0047492521   5.9731671      5.9731671      5.9731671      0              0              0              1.0323066    
    117000   0.34629627     1.0290951     -5.4749629     -4.0103879      0.88663825     0.75267499     0.43514925     1.4720905      0.26998189    -0.33877324    -0.11950733     5.979374       5.979374       5.979374       0              0              0              1.0290951    
    118000   0.31124964     1.0404347     -5.5670857     -3.7529553      1.2765096      0.79870872     1.1948919      1.8359283     -0.11486977    -0.13586749     0.087413585    5.9575718      5.9575718      5.9575718      0              0              0              1.0404347    
    119000   0.31200303     1.0358922     -5.5214462     -3.8845034      1.1030163      0.73333936     1.0683588      1.5073508     -0.36246448    -0.22384147     0.17066242     5.9662673      5.9662673      5.9662673      0              0              0              1.0358922    
    120000   0.28585062     1.0408928     -5.5639568     -3.6935389      1.3662058      1.1114903      1.1126685      1.8744587      0.018556984   -0.068104779   -0.049708129    5.9566976      5.9566976      5.9566976      0              0              0              1.0408928    
    121000   0.28821265     1.0313871     -5.6218721     -4.8753059      0.29667272     0.47785167    -0.17096045     0.58312694    -0.11984613    -0.21571456    -0.27749382     5.9749415      5.9749415      5.9749415      0              0              0              1.0313871    
    122000   0.2912413      1.0346804     -5.6352004     -4.4014374      0.75163448     0.33792868     0.6267117      1.2902631     -0.31928768    -0.11321989    -0.42719434     5.9685955      5.9685955      5.9685955      0              0              0              1.0346804    
    123000   0.28562347     1.054188      -5.640666      -3.6480238      1.501115       1.5165466      0.88439327     2.1024049     -0.23644084    -0.13099717    -0.54090787     5.9315502      5.9315502      5.9315502      0              0              0              1.054188     
    124000   0.27443526     1.038678      -5.5982393     -4.2085762      0.92543237     0.33107542     0.4814874      1.9637343     -0.097309374   -0.22369041     0.16987296     5.9609285      5.9609285      5.9609285      0              0              0              1.038678     
    125000   0.24481136     1.0371589     -5.6568939     -4.8811498      0.38691983     0.029644413   -0.12910401     1.2602191     -0.10588002    -0.19353244    -0.28951659     5.9638374      5.9638374      5.9638374      0              0              0              1.0371589    
    126000   0.22590361     1.0495501     -5.6522778     -3.9060994      1.3443947      1.2447572      0.90958755     1.8788395     -0.22512878     0.061758629   -0.00037940716  5.9402743      5.9402743      5.9402743      0              0              0              1.0495501    
    127000   0.24657176     1.0454248     -5.6722086     -4.03246        1.2086443      0.67382423     0.91587021     2.0362386     -0.22827068    -0.16232033    -0.35597244     5.9480776      5.9480776      5.9480776      0              0              0              1.0454248    
    128000   0.21846157     1.048743      -5.7083959     -4.1155251      1.2077866      1.2073011      0.7227248      1.693334      -0.26064429    -0.22412415     0.014135807    5.9417979      5.9417979      5.9417979      0              0              0              1.048743     
    129000   0.19155345     1.0447042     -5.6839323     -4.4610004      0.88993451     0.75065148     0.18560538     1.7335467     -0.32305311    -0.039759812   -0.27123685     5.9494448      5.9494448      5.9494448      0              0              0              1.0447042    
    130000   0.18764617     1.0532215     -5.7566102     -3.9572144      1.4547229      1.3652696      0.91643369     2.0824653      0.16397765    -0.53526493    -0.12316458     5.9333639      5.9333639      5.9333639      0              0              0              1.0532215    
    131000   0.18295236     1.0507911     -5.722093      -4.3655556      1.0350111      1.2530686      0.53872325     1.3132414     -0.36280823    -0.16095781     0.068277073    5.937935       5.937935       5.937935       0              0              0              1.0507911    
    132000   0.17581352     1.0552681     -5.7611899     -4.2692373      1.1795507      1.1104309      0.79607418     1.632147      -0.037035252   -0.45033128    -0.17787162     5.9295257      5.9295257      5.9295257      0              0              0              1.0552681    
    133000   0.15265218     1.0549628     -5.7701677     -4.4557696      1.0420776      0.85520092     0.70757471     1.563457       0.036311846   -0.17917155    -0.03473126     5.9300977      5.9300977      5.9300977      0              0              0              1.0549628    
    134000   0.17742238     1.048656      -5.779219      -5.1525         0.34502312    -0.049793931    0.024541381    1.0603219     -0.020844365    0.23832449    -0.081904554    5.9419621      5.9419621      5.9419621      0              0              0              1.048656     
    135000   0.15376079     1.0612302     -5.8107713     -4.3426159      1.1950102      0.85636926     1.0241694      1.7044918     -0.46797821    -0.0048482542  -0.052588744    5.9184006      5.9184006      5.9184006      0              0              0              1.0612302    
    136000   0.15454799     1.05804       -5.8179873     -4.432195       1.1110664      1.1321353      0.69080651     1.5102574     -0.11936213    -0.16850086     0.053433189    5.9243431      5.9243431      5.9243431      0              0              0              1.05804      
    137000   0.12936672     1.0561562     -5.8382254     -4.6330471      0.97175828     0.4805735      0.73073544     1.7039659     -0.37757894    -0.13330167    -0.22412524     5.9278632      5.9278632      5.9278632      0              0              0              1.0561562    
    138000   0.11014959     1.0617917     -5.8486594     -4.6735389      0.97561498     0.57158327     0.5873098      1.7679519     -0.082480743    0.15209413    -0.034512875    5.9173571      5.9173571      5.9173571      0              0              0              1.0617917    
    139000   0.12029669     1.0581801     -5.8629306     -4.7388924      0.90858749     0.66233911     0.59777132     1.465652      -0.28705776    -0.054253771    0.14788992     5.9240816      5.9240816      5.9240816      0              0              0              1.0581801    
    140000   0.094200542    1.0598884     -5.8780433     -4.8206039      0.88341226     0.59887381     0.45597866     1.5953843     -0.21813218     0.13078166     0.049265096    5.9208971      5.9208971      5.9208971      0              0              0              1.0598884    
Loop time of 23.7514 on 4 procs for 140000 steps with 200 atoms

Performance: 1018550.101 tau/day, 5894.387 timesteps/s
82.1% CPU use with 4 MPI tasks x 1 OpenMP threads

MPI task timing breakdown:
Section |  min time  |  avg time  |  max time  |%varavg| %total
---------------------------------------------------------------
Pair    | 8.5846     | 8.7636     | 8.8965     |   3.9 | 36.90
Bond    | 0.16217    | 0.16398    | 0.16553    |   0.3 |  0.69
Neigh   | 0.046258   | 0.046305   | 0.04636    |   0.0 |  0.19
Comm    | 11.878     | 12.039     | 12.194     |   3.3 | 50.69
Output  | 0.021576   | 0.021932   | 0.022996   |   0.4 |  0.09
Modify  | 1.1725     | 1.1866     | 1.2036     |   1.3 |  5.00
Other   |            | 1.53       |            |       |  6.44

Nlocal:             50 ave          53 max          46 min
Histogram: 1 0 0 0 0 1 0 1 0 1
Nghost:        2993.25 ave        3008 max        2977 min
Histogram: 1 0 0 1 0 0 0 1 0 1
Neighs:        15865.2 ave       16884 max       14477 min
Histogram: 1 0 0 0 0 1 0 1 0 1

Total # of neighbors = 63461
Ave neighs/atom = 317.305
Ave special neighs/atom = 8.23
Neighbor list builds = 106
Dangerous builds = 0
System init for write_data ...
Generated 0 of 1 mixed pair_coeff terms from geometric mixing rule
WARNING: Proc sub-domain size < neighbor skin, could lead to lost atoms (src/domain.cpp:970)
WARNING: Not all mixed pair coeffs generated from mixing. Use write_data with 'pair ij' option to store all pair coeffs. (src/write_data.cpp:309)
Total wall time: 0:00:23
